
# ====================================
read_data       Output/data.2T-SiC_Modelled
Reading data file ...
  orthogonal box = (0 0 0) to (87.2 87.2 87.2)
  1 by 2 by 2 MPI processor grid
  reading atoms ...
  64000 atoms
  reading velocities ...
  64000 velocities
Finding 1-2 1-3 1-4 neighbors ...
  special bond factors lj:    0        0        0       
  special bond factors coul:  0        0        0       
     0 = max # of 1-2 neighbors
     0 = max # of 1-3 neighbors
     0 = max # of 1-4 neighbors
     1 = max # of special neighbors
  special bonds CPU = 0.023 seconds
  read_data CPU = 0.392 seconds
group           Center type 1 2
41089 atoms in group Center
group           Perim  type 3 4
22911 atoms in group Perim
# ====================================
pair_style      gw/zbl
pair_coeff      * *  potential/SiC.gw.zbl   C  Si   C   Si    C
Reading gw/zbl potential file potential/SiC.gw.zbl with DATE: 2016-05-06

# -- OR ---
# pair_style      tersoff/zbl
# pair_coeff      * *  potential/SiC.tersoff.zbl   C  Si   C   Si    C

# ====================================
velocity        all create 300 5287287
thermo_style    custom step temp epair press ke atoms time
thermo          50
thermo_modify   lost warn

######################################
# DUMP

dump            DUMP1 all custom 50 Output/dump-2T-SiC-GW-${trial}.lammpstrj id type xs ys zs x y z vx vy vz
dump            DUMP1 all custom 50 Output/dump-2T-SiC-GW-2.lammpstrj id type xs ys zs x y z vx vy vz
# dump            DUMP2 all yaml   50 Output/dump-2T-SiC-GW-${trial}.yaml id type x y z vx vy vz
# dump_modify     DUMP2 time yes units yes thermo yes

# -------------------------------------
fix             N1 all    npt temp 300 300 0.1 iso 0 0 0.1
run             4000
Neighbor list info ...
  update every 10 steps, delay 10 steps, check yes
  max neighbors/atom: 2000, page size: 100000
  master list distance cutoff = 5
  ghost atom cutoff = 5
  binsize = 2.5, bins = 35 35 35
  1 neighbor lists, perpetual/occasional/extra = 1 0 0
  (1) pair gw/zbl, perpetual
      attributes: full, newton on
      pair build: full/bin
      stencil: full/bin/3d
      bin: standard
Per MPI rank memory allocation (min/avg/max) = 19.12 | 19.12 | 19.12 Mbytes
   Step          Temp          E_pair         Press          KinEng        Atoms         Time     
         0   300           -410365.09      4031.5843      2481.756           64000   0            
        50   88.144453     -408570.35     -2590.953       729.17675          64000   0.05         
       100   134.61248     -408885.04     -21.001504      1113.5844          64000   0.1          
       150   200.75383     -409354.49      1957.831       1660.7401          64000   0.15         
       200   141.67869     -408776.28     -1752.2607      1172.0398          64000   0.2          
       250   152.03474     -408764.46     -154.39888      1257.7104          64000   0.25         
       300   209.80299     -409144.74      1408.0166      1735.5994          64000   0.3          
       350   171.42105     -408717.81     -1238.1176      1418.0841          64000   0.35         
       400   180.64347     -408680.82      17.175389      1494.3768          64000   0.4          
       450   222.9716      -408916.96      674.88161      1844.537           64000   0.45         
       500   189.49246     -408517.34     -854.86291      1567.5802          64000   0.5          
       550   221.05784     -408655.59      600.71661      1828.7054          64000   0.55         
       600   225.79223     -408569.65     -144.38884      1867.8708          64000   0.6          
       650   207.88095     -408291.79     -604.61413      1719.6993          64000   0.65         
       700   257.55832     -408575.48      1092.3082      2130.6564          64000   0.7          
       750   233.31524     -408246.11     -743.81389      1930.105           64000   0.75         
       800   238.92122     -408162.99     -295.3195       1976.4806          64000   0.8          
       850   280.58645     -408383.24      1014.2502      2321.1571          64000   0.85         
       900   251.8319      -408021.02     -804.00133      2083.2844          64000   0.9          
       950   270.43919     -408055.06      19.230655      2237.2136          64000   0.95         
      1000   291.34987     -408116.54      517.33922      2410.1976          64000   1            
      1050   277.73756     -407895.31     -506.3351       2297.5895          64000   1.05         
      1100   297.86364     -407966.15      241.65803      2464.083           64000   1.1          
      1150   296.54226     -407870.31     -103.797        2453.1518          64000   1.15         
      1200   295.08629     -407787.65     -11.214641      2441.1072          64000   1.2          
      1250   315.45099     -407902.6       312.8238       2609.5746          64000   1.25         
      1300   297.19078     -407718.9      -596.53989      2458.5167          64000   1.3          
      1350   309.69834     -407818.25      396.59165      2561.9857          64000   1.35         
      1400   313.03445     -407865.19      136.22087      2589.5838          64000   1.4          
      1450   289.3882      -407709.32     -563.63039      2393.9697          64000   1.45         
      1500   309.23724     -407922.17      514.39511      2558.1713          64000   1.5          
      1550   296.57448     -407859.41     -148.36896      2453.4183          64000   1.55         
      1600   291.05575     -407845.06     -189.86109      2407.7645          64000   1.6          
      1650   302.68595     -407953.29      353.98638      2503.9756          64000   1.65         
      1700   290.40619     -407842.02     -298.84996      2402.391           64000   1.7          
      1750   296.90056     -407869.79      123.95265      2456.1158          64000   1.75         
      1800   303.48975     -407888.11      123.23574      2510.6251          64000   1.8          
      1850   293.85596     -407773.05     -352.21258      2430.9293          64000   1.85         
      1900   309.22198     -407872.03      374.3263       2558.0451          64000   1.9          
      1950   300.62162     -407784.08     -193.75164      2486.8984          64000   1.95         
      2000   304.11112     -407814.7      -187.73473      2515.7653          64000   2            
      2050   311.05791     -407887.44      330.57354      2573.2328          64000   2.05         
      2100   291.83628     -407758.08     -260.72084      2414.2214          64000   2.1          
      2150   302.28839     -407874.72      23.48209       2500.6867          64000   2.15         
      2200   295.35986     -407847.42      199.06214      2443.3703          64000   2.2          
      2250   296.34507     -407871.77     -174.34856      2451.5205          64000   2.25         
      2300   297.26732     -407885.5       251.36399      2459.1498          64000   2.3          
      2350   297.54577     -407876.3      -171.5165       2461.4533          64000   2.35         
      2400   299.41029     -407869.19     -105.23034      2476.8776          64000   2.4          
      2450   302.53885     -407868.97      459.3459       2502.7587          64000   2.45         
      2500   296.18776     -407792.12     -635.07962      2450.2191          64000   2.5          
      2550   304.53084     -407841.72      174.69231      2519.2374          64000   2.55         
      2600   305.64714     -407841.91      677.97528      2528.4721          64000   2.6          
      2650   296.11478     -407766.32     -1163.2774      2449.6155          64000   2.65         
      2700   307.3079      -407873.68      655.78507      2542.2107          64000   2.7          
      2750   298.40932     -407821.07      46.887388      2468.5971          64000   2.75         
      2800   296.15235     -407828        -481.68422      2449.9262          64000   2.8          
      2850   302.61116     -407903.8       446.99982      2503.3569          64000   2.85         
      2900   293.09687     -407838.32     -224.85262      2424.6497          64000   2.9          
      2950   301.81268     -407910.06     -49.804323      2496.7514          64000   2.95         
      3000   294.77938     -407841.53      301.92226      2438.5683          64000   3            
      3050   298.85914     -407853.76     -248.93241      2472.3182          64000   3.05         
      3100   301.79741     -407856.33      18.989348      2496.6252          64000   3.1          
      3150   302.14965     -407837.42      220.22129      2499.539           64000   3.15         
      3200   300.22668     -407806.63     -300.501        2483.6312          64000   3.2          
      3250   305.45846     -407845.76      21.843829      2526.9112          64000   3.25         
      3300   298.49479     -407796.9       449.33562      2469.3041          64000   3.3          
      3350   305.86576     -407870.88     -528.17051      2530.2806          64000   3.35         
      3400   302.24295     -407864.52      7.8714175      2500.3108          64000   3.4          
      3450   295.54584     -407831.42      576.59952      2444.9089          64000   3.45         
      3500   299.92071     -407883.79     -500.12984      2481.1001          64000   3.5          
      3550   294.81024     -407848.2       82.828092      2438.8236          64000   3.55         
      3600   294.96156     -407847.53      218.79931      2440.0754          64000   3.6          
      3650   303.04475     -407897.96     -253.90728      2506.9438          64000   3.65         
      3700   296.03124     -407821.82      85.177488      2448.9244          64000   3.7          
      3750   305.81457     -407881.57      93.30978       2529.8572          64000   3.75         
      3800   301.90471     -407830.88     -216.29159      2497.5127          64000   3.8          
      3850   299.82223     -407805.04      220.06816      2480.2854          64000   3.85         
      3900   303.73142     -407836.71     -90.120388      2512.6243          64000   3.9          
      3950   301.777       -407831.83     -255.1893       2496.4563          64000   3.95         
      4000   296.49307     -407807.38      651.09155      2452.7449          64000   4            
Loop time of 650.339 on 4 procs for 4000 steps with 64000 atoms

Performance: 0.531 ns/day, 45.162 hours/ns, 6.151 timesteps/s
94.9% CPU use with 4 MPI tasks x 1 OpenMP threads

MPI task timing breakdown:
Section |  min time  |  avg time  |  max time  |%varavg| %total
---------------------------------------------------------------
Pair    | 478.54     | 484.01     | 491.68     |  22.9 | 74.42
Bond    | 0.0015293  | 0.0016619  | 0.0018651  |   0.3 |  0.00
Neigh   | 0          | 0          | 0          |   0.0 |  0.00
Comm    | 35.847     | 43.58      | 49.079     |  77.0 |  6.70
Output  | 115.08     | 115.08     | 115.08     |   0.0 | 17.70
Modify  | 6.0426     | 6.0866     | 6.1332     |   1.6 |  0.94
Other   |            | 1.587      |            |       |  0.24

Nlocal:          16000 ave       16000 max       16000 min
Histogram: 4 0 0 0 0 0 0 0 0 0
Nghost:          10735 ave       10735 max       10735 min
Histogram: 4 0 0 0 0 0 0 0 0 0
Neighs:              0 ave           0 max           0 min
Histogram: 4 0 0 0 0 0 0 0 0 0
FullNghs:       736000 ave      736000 max      736000 min
Histogram: 4 0 0 0 0 0 0 0 0 0

Total # of neighbors = 2944000
Ave neighs/atom = 46
Ave special neighs/atom = 0
Neighbor list builds = 0
Dangerous builds = 0

unfix           N1
fix             N1 Perim  temp/berendsen 300 300 0.1
fix             N2 all    nve
run             20000 upto
Per MPI rank memory allocation (min/avg/max) = 19.12 | 19.12 | 19.12 Mbytes
   Step          Temp          E_pair         Press          KinEng        Atoms         Time     
      4000   296.49307     -407807.38      651.09155      2452.7449          64000   4            
      4050   300.59506     -407843.31      428.36785      2486.6786          64000   4.05         
      4100   302.28422     -407858.22      779.16065      2500.6522          64000   4.1          
      4150   302.49784     -407859.4       889.04439      2502.4195          64000   4.15         
      4200   302.51529     -407859.55      509.08413      2502.5638          64000   4.2          
      4250   298.33222     -407825.43      598.72687      2467.9593          64000   4.25         
      4300   299.76373     -407838.14      468.3592       2479.8015          64000   4.3          
      4350   301.82288     -407853.99      782.14377      2496.8358          64000   4.35         
      4400   301.54213     -407849.81      583.33223      2494.5133          64000   4.4          
      4450   301.77143     -407852.89      706.42632      2496.4102          64000   4.45         
      4500   297.84051     -407819.83      534.45948      2463.8916          64000   4.5          
      4550   299.43881     -407834.55      507.68116      2477.1135          64000   4.55         
      4600   302.04743     -407855.48      721.8043       2498.6934          64000   4.6          
      4650   302.15301     -407858.36      778.564        2499.5669          64000   4.65         
      4700   301.95368     -407855.13      791.08505      2497.9179          64000   4.7          
      4750   298.46898     -407826.33      475.17111      2469.0906          64000   4.75         
      4800   298.0526      -407825.91      589.00857      2465.6461          64000   4.8          
      4850   301.22783     -407852.95      548.99922      2491.9132          64000   4.85         
      4900   302.1157      -407858.53      742.94513      2499.2582          64000   4.9          
      4950   298.62701     -407829.69      592.33891      2470.3979          64000   4.95         
      5000   300.31799     -407844.38      609.40649      2484.3866          64000   5            
      5050   299.39012     -407834.83      583.56578      2476.7108          64000   5.05         
      5100   301.92585     -407855.72      728.39436      2497.6877          64000   5.1          
      5150   300.59195     -407843.41      660.91389      2486.6529          64000   5.15         
      5200   298.62993     -407828.26      657.46142      2470.4221          64000   5.2          
      5250   304.91561     -407880.02      830.64695      2522.4205          64000   5.25         
      5300   296.24738     -407806.96      427.24299      2450.7124          64000   5.3          
      5350   300.09465     -407839.06      686.6365       2482.539           64000   5.35         
      5400   304.48627     -407874.28      935.87325      2518.8688          64000   5.4          
      5450   298.80134     -407826.09      361.53452      2471.84            64000   5.45         
      5500   299.68087     -407832.17      499.37481      2479.116           64000   5.5          
      5550   300.77195     -407841.32      651.41036      2488.1419          64000   5.55         
      5600   301.88848     -407852.25      711.52297      2497.3785          64000   5.6          
      5650   300.41307     -407840.55      521.69264      2485.1732          64000   5.65         
      5700   301.7606      -407851.85      797.57266      2496.3206          64000   5.7          
      5750   301.88054     -407853.5       572.07297      2497.3128          64000   5.75         
      5800   299.95842     -407838.49      672.05476      2481.412           64000   5.8          
      5850   298.57296     -407828.62      585.46647      2469.9508          64000   5.85         
      5900   302.75307     -407865.12      801.12877      2504.5308          64000   5.9          
      5950   299.04537     -407834.25      601.34554      2473.8588          64000   5.95         
      6000   298.89774     -407834.16      548.23898      2472.6376          64000   6            
      6050   298.1338      -407828.8       607.54963      2466.3179          64000   6.05         
      6100   302.73468     -407866.25      716.11105      2504.3787          64000   6.1          
      6150   298.26045     -407828.04      709.02862      2467.3655          64000   6.15         
      6200   302.25327     -407863.91      632.91375      2500.3962          64000   6.2          
      6250   298.54089     -407832.59      616.09296      2469.6855          64000   6.25         
      6300   300.90152     -407852.76      729.77299      2489.2139          64000   6.3          
      6350   300.25683     -407848.13      484.81006      2483.8806          64000   6.35         
      6400   300.24469     -407846.67      811.77161      2483.7802          64000   6.4          
      6450   302.25016     -407864.43      613.70969      2500.3705          64000   6.45         
      6500   295.87738     -407810.27      572.77764      2447.6515          64000   6.5          
      6550   300.82348     -407851.11      550.95314      2488.5683          64000   6.55         
      6600   301.11577     -407851.06      759.80133      2490.9862          64000   6.6          
      6650   299.64119     -407840.94      617.92749      2478.7878          64000   6.65         
      6700   301.78075     -407856.28      724.24108      2496.4873          64000   6.7          
      6750   299.34411     -407834.43      545.22949      2476.3301          64000   6.75         
      6800   299.1059      -407836.08      727.34332      2474.3595          64000   6.8          
      6850   299.57896     -407839.11      455.98066      2478.273           64000   6.85         
      6900   301.6954      -407856.54      851.16651      2495.7813          64000   6.9          
      6950   299.58232     -407838.73      594.24997      2478.3007          64000   6.95         
      7000   301.73713     -407857.49      663.85593      2496.1264          64000   7            
      7050   300.86129     -407851.13      695.63931      2488.881           64000   7.05         
      7100   301.83641     -407856.97      772.76013      2496.9477          64000   7.1          
      7150   299.32637     -407835.55      437.95905      2476.1834          64000   7.15         
      7200   299.07192     -407831.87      649.05964      2474.0785          64000   7.2          
      7250   300.27519     -407843.27      569.13906      2484.0325          64000   7.25         
      7300   300.31102     -407843.7       721.05222      2484.3289          64000   7.3          
      7350   300.29573     -407843.95      645.13764      2484.2025          64000   7.35         
      7400   300.16111     -407844.36      614.21629      2483.0888          64000   7.4          
      7450   302.68943     -407862.96      802.84124      2504.0044          64000   7.45         
      7500   299.87736     -407841.08      660.43528      2480.7414          64000   7.5          
      7550   301.54698     -407854.44      665.19324      2494.5534          64000   7.55         
      7600   298.99707     -407832.37      578.55836      2473.4593          64000   7.6          
      7650   299.86699     -407839.59      730.34386      2480.6557          64000   7.65         
      7700   301.35657     -407851.62      705.15356      2492.9783          64000   7.7          
      7750   300.53665     -407845.81      646.58424      2486.1954          64000   7.75         
      7800   300.50994     -407845.84      642.50091      2485.9745          64000   7.8          
      7850   298.55115     -407830.45      549.9916       2469.7703          64000   7.85         
      7900   299.87451     -407842.6       663.16017      2480.7179          64000   7.9          
      7950   302.33748     -407863.83      776.18071      2501.0929          64000   7.95         
      8000   297.51135     -407823.86      608.71167      2461.1686          64000   8            
      8050   303.29343     -407871.92      747.03099      2509.001           64000   8.05         
      8100   298.01536     -407829.24      624.46425      2465.338           64000   8.1          
      8150   302.31756     -407864.62      783.67351      2500.9281          64000   8.15         
      8200   298.74215     -407835.31      566.27792      2471.3504          64000   8.2          
      8250   298.1066      -407828.71      481.6244       2466.0929          64000   8.25         
      8300   302.47008     -407863.99      813.03396      2502.1898          64000   8.3          
      8350   299.82361     -407843.95      665.04649      2480.2969          64000   8.35         
      8400   298.56317     -407833.65      612.9937       2469.8698          64000   8.4          
      8450   300.41966     -407849.98      725.27221      2485.2276          64000   8.45         
      8500   299.97517     -407843.97      609.94701      2481.5506          64000   8.5          
      8550   299.76836     -407843.51      709.42342      2479.8398          64000   8.55         
      8600   302.02596     -407863.02      712.53653      2498.5158          64000   8.6          
      8650   301.54192     -407856.79      797.77604      2494.5115          64000   8.65         
      8700   294.44428     -407797.57      254.63816      2435.7962          64000   8.7          
      8750   304.97524     -407886.88      918.27032      2522.9138          64000   8.75         
      8800   298.87635     -407835.17      737.21487      2472.4606          64000   8.8          
      8850   298.86882     -407836.73      546.89873      2472.3983          64000   8.85         
      8900   299.32689     -407840.66      582.63773      2476.1877          64000   8.9          
      8950   301.06981     -407854.04      664.55977      2490.606           64000   8.95         
      9000   301.34392     -407855.69      811.20752      2492.8736          64000   9            
      9050   302.29934     -407863.41      838.76545      2500.7774          64000   9.05         
      9100   297.49013     -407824.82      584.63098      2460.993           64000   9.1          
      9150   299.0612      -407837.4       562.42926      2473.9897          64000   9.15         
      9200   299.24862     -407838.5       611.99643      2475.5402          64000   9.2          
      9250   300.81468     -407853.29      798.48973      2488.4954          64000   9.25         
      9300   296.86099     -407819.75      487.89988      2455.7885          64000   9.3          
      9350   304.32985     -407881.88      993.01478      2517.5748          64000   9.35         
      9400   301.14198     -407854.79      733.66625      2491.203           64000   9.4          
      9450   299.12759     -407837.95      650.9069       2474.539           64000   9.45         
      9500   301.09925     -407853.42      685.55342      2490.8496          64000   9.5          
      9550   300.94355     -407852.84      856.98632      2489.5615          64000   9.55         
      9600   297.65122     -407825.43      535.8483       2462.3257          64000   9.6          
      9650   299.81761     -407842.38      615.9811       2480.2472          64000   9.65         
      9700   301.60066     -407857.8       795.88683      2494.9975          64000   9.7          
      9750   299.10532     -407836.45      667.73092      2474.3548          64000   9.75         
      9800   300.2919      -407846.21      586.04347      2484.1707          64000   9.8          
      9850   301.80594     -407859.65      770.70744      2496.6956          64000   9.85         
      9900   300.84804     -407849.85      684.41994      2488.7714          64000   9.9          
      9950   299.8252      -407840.85      644.28604      2480.3099          64000   9.95         
     10000   299.47379     -407841.2       742.20283      2477.4029          64000   10           
     10050   301.771       -407858.46      675.08204      2496.4066          64000   10.05        
     10100   298.77267     -407835.3       661.30825      2471.6029          64000   10.1         
     10150   302.48309     -407865.71      925.84056      2502.2974          64000   10.15        
     10200   299.6157      -407840.67      601.17881      2478.5769          64000   10.2         
     10250   297.40183     -407823.07      529.22984      2460.2626          64000   10.25        
     10300   299.89984     -407844.84      736.67143      2480.9274          64000   10.3         
     10350   300.29961     -407848.94      678.22038      2484.2345          64000   10.35        
     10400   299.20886     -407838.53      594.27128      2475.2113          64000   10.4         
     10450   300.41089     -407847.99      729.57687      2485.1551          64000   10.45        
     10500   302.03341     -407860.96      696.28731      2498.5774          64000   10.5         
     10550   301.97598     -407860.53      873.96386      2498.1024          64000   10.55        
     10600   300.31936     -407845.72      605.30521      2484.3979          64000   10.6         
     10650   297.90069     -407826.14      577.3519       2464.3894          64000   10.65        
     10700   298.55301     -407831.7       536.41702      2469.7858          64000   10.7         
     10750   301.82022     -407858.58      776.0306       2496.8138          64000   10.75        
     10800   299.82419     -407840.98      693.7178       2480.3016          64000   10.8         
     10850   299.41615     -407838.84      652.89061      2476.9261          64000   10.85        
     10900   302.6002      -407864.56      776.75854      2503.2663          64000   10.9         
     10950   299.68968     -407841.52      659.0707       2479.1889          64000   10.95        
     11000   300.49338     -407848.68      719.27547      2485.8375          64000   11           
     11050   299.47766     -407840.61      611.27715      2477.4349          64000   11.05        
     11100   300.11745     -407846.5       688.6552       2482.7276          64000   11.1         
     11150   299.96289     -407845.4       718.08919      2481.449           64000   11.15        
     11200   299.828       -407844.31      589.33295      2480.3331          64000   11.2         
     11250   301.96901     -407861.61      907.75246      2498.0446          64000   11.25        
     11300   298.57648     -407833.36      580.39442      2469.9799          64000   11.3         
     11350   301.06188     -407853.5       592.66494      2490.5404          64000   11.35        
     11400   298.97999     -407837.02      729.15111      2473.318           64000   11.4         
     11450   300.26426     -407847.82      608.92677      2483.9421          64000   11.45        
     11500   302.15234     -407861.43      819.46612      2499.5613          64000   11.5         
     11550   298.98814     -407836.3       612.44077      2473.3854          64000   11.55        
     11600   301.00348     -407853.29      839.56566      2490.0573          64000   11.6         
     11650   299.31433     -407840.21      553.77948      2476.0838          64000   11.65        
     11700   301.62892     -407858.46      731.4065       2495.2313          64000   11.7         
     11750   297.43336     -407825.37      612.48416      2460.5235          64000   11.75        
     11800   301.28412     -407856.68      798.70232      2492.3789          64000   11.8         
     11850   300.07221     -407846.9       644.9696       2482.3534          64000   11.85        
     11900   298.80489     -407835.12      548.11986      2471.8695          64000   11.9         
     11950   300.80561     -407850.8       728.84748      2488.4204          64000   11.95        
     12000   302.5837      -407866.88      793.45096      2503.1297          64000   12           
     12050   298.35005     -407830.83      625.87898      2468.1068          64000   12.05        
     12100   302.48634     -407864.37      799.99765      2502.3243          64000   12.1         
     12150   300.97456     -407851.76      583.90105      2489.8181          64000   12.15        
     12200   297.37392     -407819.23      689.86657      2460.0317          64000   12.2         
     12250   299.20891     -407836.02      533.40963      2475.2117          64000   12.25        
     12300   300.47007     -407847.19      642.75451      2485.6447          64000   12.3         
     12350   300.07305     -407842.07      835.58165      2482.3603          64000   12.35        
     12400   299.98618     -407841.59      510.04759      2481.6416          64000   12.4         
     12450   303.16286     -407868.83      842.55436      2507.9208          64000   12.45        
     12500   299.22394     -407834.89      681.00388      2475.3361          64000   12.5         
     12550   300.7354      -407846.61      634.41765      2487.8396          64000   12.55        
     12600   303.12965     -407866.35      836.22322      2507.6461          64000   12.6         
     12650   297.90839     -407823.36      638.58358      2464.4531          64000   12.65        
     12700   301.47557     -407851.91      667.85699      2493.9627          64000   12.7         
     12750   299.6086      -407835.79      727.02655      2478.5182          64000   12.75        
     12800   301.30914     -407850.19      690.60153      2492.5859          64000   12.8         
     12850   299.40444     -407831.66      635.64614      2476.8293          64000   12.85        
     12900   299.87611     -407835.99      695.4868       2480.7312          64000   12.9         
     12950   301.80892     -407851.88      686.25917      2496.7203          64000   12.95        
     13000   300.51484     -407840.64      823.07624      2486.015           64000   13           
     13050   300.87009     -407845.02      682.22041      2488.9538          64000   13.05        
     13100   300.11085     -407839.92      659.61055      2482.673           64000   13.1         
     13150   301.25768     -407848.72      761.90258      2492.1602          64000   13.15        
     13200   301.35052     -407849.05      758.28032      2492.9282          64000   13.2         
     13250   298.61579     -407827.87      531.10591      2470.3051          64000   13.25        
     13300   301.05399     -407847.95      804.55884      2490.4752          64000   13.3         
     13350   298.81871     -407830.55      589.55478      2471.9838          64000   13.35        
     13400   299.85259     -407839.29      728.37238      2480.5365          64000   13.4         
     13450   299.60798     -407836.57      541.84471      2478.513           64000   13.45        
     13500   302.86364     -407862.93      815.69984      2505.4456          64000   13.5         
     13550   302.0377      -407856.97      884.50303      2498.6129          64000   13.55        
     13600   298.44531     -407826.79      502.33788      2468.8948          64000   13.6         
     13650   301.37584     -407850.96      670.60391      2493.1377          64000   13.65        
     13700   302.20049     -407858.43      954.41874      2499.9596          64000   13.7         
     13750   298.29685     -407825.08      498.44426      2467.6666          64000   13.75        
     13800   300.26644     -407842.93      694.99194      2483.9601          64000   13.8         
     13850   298.75084     -407828.94      576.89063      2471.4223          64000   13.85        
     13900   302.63116     -407862.88      905.85799      2503.5223          64000   13.9         
     13950   299.82873     -407838.26      650.11248      2480.3392          64000   13.95        
     14000   302.31057     -407860.72      817.41162      2500.8703          64000   14           
     14050   299.08021     -407833.48      526.7713       2474.147           64000   14.05        
     14100   298.68687     -407828.89      687.13163      2470.8932          64000   14.1         
     14150   302.85332     -407863.16      819.5134       2505.3602          64000   14.15        
     14200   300.90917     -407846.41      703.59547      2489.2771          64000   14.2         
     14250   299.03146     -407829.69      663.03639      2473.7438          64000   14.25        
     14300   302.15981     -407855         767.36436      2499.6231          64000   14.3         
     14350   299.15186     -407830.3       572.2653       2474.7397          64000   14.35        
     14400   302.60239     -407859.05      885.97391      2503.2844          64000   14.4         
     14450   299.08241     -407830.63      654.59733      2474.1652          64000   14.45        
     14500   300.20842     -407842.22      676.10876      2483.4802          64000   14.5         
     14550   300.19181     -407840.87      694.26892      2483.3427          64000   14.55        
     14600   302.77987     -407863.53      874.9189       2504.7526          64000   14.6         
     14650   299.14295     -407832.03      690.18815      2474.666           64000   14.65        
     14700   299.74231     -407837.55      654.9032       2479.6242          64000   14.7         
     14750   300.86103     -407844.53      782.20638      2488.8789          64000   14.75        
     14800   300.79814     -407843.7       724.02807      2488.3587          64000   14.8         
     14850   299.75378     -407835.41      615.65827      2479.7191          64000   14.85        
     14900   300.05648     -407837.53      636.71464      2482.2232          64000   14.9         
     14950   303.47915     -407865.57      1005.9976      2510.5373          64000   14.95        
     15000   299.43536     -407832.15      638.91014      2477.085           64000   15           
     15050   299.62902     -407834.58      584.63521      2478.687           64000   15.05        
     15100   301.17811     -407849.18      794.69235      2491.5019          64000   15.1         
     15150   299.86967     -407836.72      648.03078      2480.6779          64000   15.15        
     15200   301.58309     -407852.11      811.37719      2494.8521          64000   15.2         
     15250   300.96755     -407845.46      688.40359      2489.7601          64000   15.25        
     15300   299.85959     -407835.63      591.3171       2480.5944          64000   15.3         
     15350   300.4887      -407841.92      704.51754      2485.7988          64000   15.35        
     15400   298.25921     -407824.39      621.23573      2467.3552          64000   15.4         
     15450   303.05192     -407865.07      826.89736      2507.0031          64000   15.45        
     15500   300.01405     -407839.42      663.44926      2481.8723          64000   15.5         
     15550   300.8428      -407846.9       801.94734      2488.7281          64000   15.55        
     15600   300.65999     -407845.34      723.56302      2487.2158          64000   15.6         
     15650   301.65894     -407854.56      871.68512      2495.4796          64000   15.65        
     15700   299.32321     -407834.64      566.06571      2476.1572          64000   15.7         
     15750   297.94608     -407821.72      510.19829      2464.7649          64000   15.75        
     15800   300.57295     -407844.29      780.40309      2486.4957          64000   15.8         
     15850   303.1549      -407866.13      909.43071      2507.855           64000   15.85        
     15900   300.70926     -407845.46      696.99861      2487.6234          64000   15.9         
     15950   298.34026     -407825.68      646.71934      2468.0257          64000   15.95        
     16000   300.01106     -407840.4       563.5815       2481.8475          64000   16           
     16050   301.26932     -407851.11      807.9144       2492.2565          64000   16.05        
     16100   300.93755     -407846.76      770.45731      2489.5119          64000   16.1         
     16150   301.23638     -407849.44      697.37855      2491.984           64000   16.15        
     16200   300.44015     -407842.94      681.74821      2485.3972          64000   16.2         
     16250   300.21573     -407840.83      693.35803      2483.5406          64000   16.25        
     16300   301.75513     -407855.05      793.08704      2496.2753          64000   16.3         
     16350   299.04941     -407830.98      566.03064      2473.8923          64000   16.35        
     16400   300.96098     -407847.49      777.94914      2489.7057          64000   16.4         
     16450   299.11181     -407832.17      513.54232      2474.4084          64000   16.45        
     16500   301.0747      -407849.38      784.21201      2490.6465          64000   16.5         
     16550   301.64384     -407854.51      767.62497      2495.3547          64000   16.55        
     16600   301.40971     -407853.38      761.88282      2493.4179          64000   16.6         
     16650   298.61876     -407831.73      628.28006      2470.3297          64000   16.65        
     16700   299.79654     -407842.16      555.63689      2480.0729          64000   16.7         
     16750   300.82846     -407851.6       789.07598      2488.6095          64000   16.75        
     16800   300.8406      -407852.18      779.56522      2488.7099          64000   16.8         
     16850   299.82195     -407843.8       675.38443      2480.2831          64000   16.85        
     16900   299.99798     -407846.51      689.33104      2481.7393          64000   16.9         
     16950   301.4458      -407858.56      807.50019      2493.7165          64000   16.95        
     17000   297.92974     -407828.59      574.63446      2464.6297          64000   17           
     17050   300.2051      -407847.72      608.34324      2483.4527          64000   17.05        
     17100   299.43093     -407840.37      693.23613      2477.0483          64000   17.1         
     17150   301.44629     -407857.29      717.78931      2493.7205          64000   17.15        
     17200   301.10336     -407854.91      731.3124       2490.8836          64000   17.2         
     17250   300.98995     -407855.16      775.52793      2489.9454          64000   17.25        
     17300   299.43752     -407842.04      726.73884      2477.1029          64000   17.3         
     17350   299.45949     -407842.12      627.94588      2477.2847          64000   17.35        
     17400   299.91247     -407847.35      863.15274      2481.0319          64000   17.4         
     17450   299.95916     -407846.31      609.10985      2481.4182          64000   17.45        
     17500   298.98667     -407840.04      693.89044      2473.3733          64000   17.5         
     17550   299.84829     -407844.6       711.88195      2480.501           64000   17.55        
     17600   302.96198     -407871.8       962.41417      2506.259           64000   17.6         
     17650   297.87371     -407829.95      582.43233      2464.1662          64000   17.65        
     17700   300.60183     -407853.34      801.3237       2486.7346          64000   17.7         
     17750   299.07725     -407839.32      529.49108      2474.1226          64000   17.75        
     17800   301.28195     -407858.17      808.30313      2492.361           64000   17.8         
     17850   299.61341     -407842.47      772.6034       2478.5579          64000   17.85        
     17900   299.59212     -407842.9       665.37798      2478.3818          64000   17.9         
     17950   297.90717     -407828.47      552.46265      2464.443           64000   17.95        
     18000   301.48511     -407857.15      834.81764      2494.0416          64000   18           
     18050   300.248       -407846.72      735.82601      2483.8076          64000   18.05        
     18100   301.24096     -407853.98      677.21395      2492.0219          64000   18.1         
     18150   300.41401     -407846.64      677.62243      2485.1809          64000   18.15        
     18200   301.19874     -407853.55      840.26453      2491.6726          64000   18.2         
     18250   299.5026      -407839.32      547.55884      2477.6412          64000   18.25        
     18300   300.47218     -407847.54      770.24829      2485.6621          64000   18.3         
     18350   298.75008     -407832.58      645.88787      2471.416           64000   18.35        
     18400   301.78445     -407858.49      729.37233      2496.5179          64000   18.4         
     18450   299.72237     -407840.77      661.68347      2479.4593          64000   18.45        
     18500   300.25714     -407844.78      801.918        2483.8832          64000   18.5         
     18550   299.66065     -407838.92      565.23875      2478.9487          64000   18.55        
     18600   301.90324     -407856.74      819.03129      2497.5006          64000   18.6         
     18650   298.8629      -407830.32      658.10818      2472.3493          64000   18.65        
     18700   301.43699     -407851.53      748.53073      2493.6435          64000   18.7         
     18750   298.70257     -407827.94      633.46908      2471.023           64000   18.75        
     18800   301.76333     -407854.33      774.95401      2496.3432          64000   18.8         
     18850   300.72546     -407843.9       699.75506      2487.7574          64000   18.85        
     18900   303.63098     -407867.95      852.90043      2511.7934          64000   18.9         
     18950   299.48092     -407832.24      720.41109      2477.4619          64000   18.95        
     19000   299.3239      -407829.65      691.03668      2476.163           64000   19           
     19050   301.11528     -407845.31      675.28745      2490.9822          64000   19.05        
     19100   299.91639     -407834.83      622.5838       2481.0643          64000   19.1         
     19150   298.91607     -407827.97      684.74211      2472.7892          64000   19.15        
     19200   302.53084     -407857.71      765.0745       2502.6924          64000   19.2         
     19250   301.62184     -407851.12      718.64209      2495.1727          64000   19.25        
     19300   300.35138     -407840.93      703.0237       2484.6628          64000   19.3         
     19350   299.80319     -407836.79      756.44525      2480.1279          64000   19.35        
     19400   301.40926     -407852.35      653.53188      2493.4141          64000   19.4         
     19450   299.26699     -407834.8       688.30165      2475.6922          64000   19.45        
     19500   301.67752     -407855.9       770.17495      2495.6333          64000   19.5         
     19550   300.59098     -407848.39      660.22496      2486.6449          64000   19.55        
     19600   298.29478     -407828.66      578.76197      2467.6495          64000   19.6         
     19650   300.93325     -407850.45      748.86612      2489.4763          64000   19.65        
     19700   299.75425     -407840.44      660.57172      2479.723           64000   19.7         
     19750   300.72095     -407848.83      764.98979      2487.7201          64000   19.75        
     19800   300.65581     -407848.7       645.01462      2487.1812          64000   19.8         
     19850   300.66961     -407847.29      662.58653      2487.2953          64000   19.85        
     19900   298.92983     -407833.7       627.10285      2472.903           64000   19.9         
     19950   301.12005     -407852.35      818.74507      2491.0216          64000   19.95        
     20000   299.46093     -407838.23      635.07405      2477.2966          64000   20           
Loop time of 3872.47 on 4 procs for 16000 steps with 64000 atoms

Performance: 0.357 ns/day, 67.230 hours/ns, 4.132 timesteps/s
86.8% CPU use with 4 MPI tasks x 1 OpenMP threads

MPI task timing breakdown:
Section |  min time  |  avg time  |  max time  |%varavg| %total
---------------------------------------------------------------
Pair    | 3182.7     | 3192       | 3196.8     |  10.1 | 82.43
Bond    | 0.007331   | 0.0075243  | 0.0077635  |   0.2 |  0.00
Neigh   | 0          | 0          | 0          |   0.0 |  0.00
Comm    | 449.76     | 454.67     | 464.73     |  28.6 | 11.74
Output  | 190        | 190.23     | 190.87     |   2.7 |  4.91
Modify  | 27.966     | 28.487     | 28.886     |   7.6 |  0.74
Other   |            | 7.043      |            |       |  0.18

Nlocal:          16000 ave       16014 max       15977 min
Histogram: 1 0 0 0 0 0 1 0 1 1
Nghost:          10735 ave       10758 max       10721 min
Histogram: 1 1 0 1 0 0 0 0 0 1
Neighs:              0 ave           0 max           0 min
Histogram: 4 0 0 0 0 0 0 0 0 0
FullNghs:       735860 ave      736509 max      734797 min
Histogram: 1 0 0 0 0 0 1 0 1 1

Total # of neighbors = 2943438
Ave neighs/atom = 45.991219
Ave special neighs/atom = 0
Neighbor list builds = 0
Dangerous builds = 0
# -------------------------------------
group           PKA id 33680
1 atoms in group PKA
velocity        PKA set 140.1114790 420.3344369 700.5573948
# -------------------------------------
fix             D1 all dt/reset 100 0.0001 0.1 0.017   units box
fix             N2 all nve

run             50000 upto
Per MPI rank memory allocation (min/avg/max) = 19.13 | 19.13 | 19.13 Mbytes
   Step          Temp          E_pair         Press          KinEng        Atoms         Time     
     20000   351.15652     -407838.23      1322.6881      2904.9493          64000   20           
     20050   347.7535      -407810.18      1371.3889      2876.7978          64000   20.005       
     20100   350.53631     -407833.28      1326.1048      2899.8186          64000   20.01        
     20150   344.93221     -407786.99      1491.181       2853.4586          64000   20.015       
     20200   341.21369     -407756.46      1731.36        2822.6971          64000   20.02        
     20250   342.99104     -407771.34      1652.9983      2837.4002          64000   20.025       
     20300   341.10806     -407755.74      1680.6205      2821.8232          64000   20.03        
     20350   342.49311     -407767.01      1870.951       2833.2811          64000   20.035       
     20400   339.95049     -407745.75      1901.4409      2812.2472          64000   20.04        
     20450   335.20909     -407706.4       1916.2433      2773.0239          64000   20.045       
     20500   328.56709     -407651.61      1977.3414      2718.0778          64000   20.05        
     20550   333.90462     -407696.02      2117.0908      2762.2326          64000   20.055       
     20600   330.24088     -407666.02      2072.7869      2731.9243          64000   20.06        
     20650   326.36222     -407634.21      2116.9295      2699.838           64000   20.065       
     20700   330.74486     -407670.74      2042.3727      2736.0935          64000   20.07        
     20750   326.9918      -407639.88      2091.3001      2705.0462          64000   20.075       
     20800   323.01844     -407607.05      2149.3666      2672.1765          64000   20.08        
     20850   324.38216     -407618.66      1944.1545      2683.4579          64000   20.087686    
     20900   320.71191     -407589.16      1922.6623      2653.0957          64000   20.095373    
     20950   319.95984     -407584.34      1897.5134      2646.8742          64000   20.103112    
     21000   320.89415     -407594.21      1715.9294      2654.6033          64000   20.110851    
     21050   319.39155     -407584.15      1673.5288      2642.173           64000   20.121792    
     21100   319.4529      -407586.72      1625.8355      2642.6805          64000   20.132733    
     21150   320.41568     -407596.61      1802.1885      2650.6452          64000   20.146769    
     21200   321.76522     -407610.09      1879.5036      2661.8092          64000   20.160805    
     21250   320.08664     -407599.17      1798.4075      2647.9231          64000   20.178953    
     21300   319.65078     -407598.38      1671.9216      2644.3174          64000   20.197101    
     21350   318.26636     -407588.56      1496.0394      2632.8648          64000   20.210131    
     21400   319.7982      -407601.97      1367.9928      2645.537           64000   20.22316     
     21450   320.49699     -407610.02      1516.9803      2651.3178          64000   20.243523    
     21500   322.21517     -407627.6       1588.4313      2665.5314          64000   20.263886    
     21550   320.53851     -407616.24      1465.1019      2651.6612          64000   20.277375    
     21600   319.47706     -407608.87      1453.8359      2642.8804          64000   20.290865    
     21650   319.48789     -407610.99      1514.4059      2642.97            64000   20.310041    
     21700   321.51463     -407630.46      1508.6509      2659.7362          64000   20.329217    
     21750   319.98449     -407620.33      1489.7711      2647.0781          64000   20.342786    
     21800   319.31088     -407616.28      1309.3796      2641.5056          64000   20.356355    
     21850   319.74209     -407621.12      1344.4411      2645.0728          64000   20.373375    
     21900   321.05743     -407634.2       1255.2678      2655.954           64000   20.390395    
     21950   320.17707     -407629.14      1287.4445      2648.6712          64000   20.407809    
     22000   320.29831     -407632.74      1400.7539      2649.6741          64000   20.425224    
     22050   320.82352     -407640.36      1340.6399      2654.019           64000   20.444108    
     22100   317.46741     -407615.27      1210.9757      2626.2555          64000   20.462993    
     22150   317.54425     -407616.8       1146.3082      2626.8912          64000   20.479519    
     22200   319.5086      -407634.9       1166.596       2643.1413          64000   20.496046    
     22250   321.21056     -407652.5       1448.6025      2657.2208          64000   20.518702    
     22300   319.53326     -407641.3       1305.674       2643.3453          64000   20.541359    
     22350   318.15721     -407631.33      1152.6007      2631.9619          64000   20.561706    
     22400   320.44229     -407652.4       1285.7905      2650.8653          64000   20.582053    
     22450   320.3014      -407654.31      1342.4575      2649.6997          64000   20.602159    
     22500   319.44197     -407649.59      1271.9756      2642.5901          64000   20.622266    
     22550   319.08599     -407648.83      1253.6186      2639.6452          64000   20.643716    
     22600   318.5038      -407647.03      1278.1591      2634.829           64000   20.665167    
     22650   317.66839     -407641.82      1286.9622      2627.9181          64000   20.690066    
     22700   317.97139     -407647.77      1211.9358      2630.4247          64000   20.714964    
     22750   317.19779     -407643.24      1146.0553      2624.0251          64000   20.738132    
     22800   319.70094     -407666.16      1399.5587      2644.7325          64000   20.7613      
     22850   319.68016     -407669.13      1330.5773      2644.5605          64000   20.780679    
     22900   318.24912     -407659.55      1311.1196      2632.7222          64000   20.800058    
     22950   319.63158     -407673.3       1274.2276      2644.1587          64000   20.821664    
     23000   317.61272     -407659.38      1283.3162      2627.4575          64000   20.843271    
     23050   317.82634     -407663.62      1235.4537      2629.2248          64000   20.870037    
     23100   316.9468      -407659.83      1225.2239      2621.9488          64000   20.896803    
     23150   315.28569     -407648.09      1113.0306      2608.2072          64000   20.922917    
     23200   317.72546     -407670.36      1251.6184      2628.3903          64000   20.949032    
     23250   316.48073     -407662.97      1166.0082      2618.0932          64000   20.972749    
     23300   315.79479     -407659.64      1114.953       2612.4187          64000   20.996466    
     23350   316.52572     -407667.93      1254.4136      2618.4654          64000   21.02219     
     23400   318.37702     -407686.6       1339.5784      2633.7803          64000   21.047915    
     23450   314.93604     -407660.81      1028.6254      2605.3147          64000   21.07715     
     23500   316.54126     -407676.39      1247.5783      2618.5939          64000   21.106385    
     23550   315.22741     -407667.21      1179.6158      2607.7251          64000   21.130675    
     23600   315.75508     -407673.4       1143.8384      2612.0903          64000   21.154966    
     23650   316.74886     -407683.74      1314.3615      2620.3113          64000   21.176005    
     23700   314.98386     -407670.85      1127.7938      2605.7103          64000   21.197045    
     23750   315.125       -407673.03      1043.3581      2606.8779          64000   21.219714    
     23800   316.90041     -407689.73      1312.5151      2621.565           64000   21.242384    
     23850   314.5142      -407671.02      1188.4608      2601.825           64000   21.265998    
     23900   315.16348     -407677.3       1111.777       2607.1962          64000   21.289612    
     23950   314.86971     -407675.67      1061.756       2604.766           64000   21.311837    
     24000   315.3762      -407680.29      1087.874       2608.9559          64000   21.334063    
     24050   317.27458     -407698.91      1313.0349      2624.6603          64000   21.361018    
     24100   313.24532     -407667         1144.4273      2591.3281          64000   21.387973    
     24150   316.31878     -407694.62      1245.3873      2616.7535          64000   21.42011     
     24200   313.93742     -407677.66      1199.2792      2597.0536          64000   21.452247    
     24250   314.98527     -407688.77      1138.7205      2605.7219          64000   21.480757    
     24300   313.8923      -407680.74      1025.2747      2596.6803          64000   21.509267    
     24350   315.71344     -407698.28      1203.5347      2611.7457          64000   21.535978    
     24400   314.32148     -407689.09      1151.0765      2600.2307          64000   21.562688    
     24450   314.56631     -407693.2       1058.9153      2602.2561          64000   21.593528    
     24500   312.32591     -407674.97      1053.5035      2583.7223          64000   21.624368    
     24550   315.83792     -407706.02      1200.2857      2612.7755          64000   21.649988    
     24600   314.8193      -407699.58      977.34707      2604.3489          64000   21.675608    
     24650   312.16364     -407678.36      937.88479      2582.38            64000   21.706847    
     24700   314.68475     -407701.33      1159.3432      2603.2359          64000   21.738086    
     24750   314.68932     -407703.98      1118.6246      2603.2737          64000   21.767153    
     24800   313.03512     -407691.26      1036.754       2589.5893          64000   21.796221    
     24850   314.89486     -407708.48      1140.9189      2604.9741          64000   21.82868     
     24900   313.61921     -407700.68      1078.8877      2594.4212          64000   21.86114     
     24950   313.44848     -407701.22      1014.4572      2593.0089          64000   21.89004     
     25000   313.04549     -407698.85      938.98397      2589.6751          64000   21.91894     
     25050   313.60592     -407704.99      1045.1624      2594.3113          64000   21.946225    
     25100   311.29586     -407686.45      1046.199       2575.2013          64000   21.973511    
     25150   314.86391     -407718.75      1135.7589      2604.718           64000   22.005087    
     25200   312.48141     -407699.54      946.26001      2585.0087          64000   22.036663    
     25250   313.90097     -407713.32      1125.3556      2596.752           64000   22.06491     
     25300   312.5588      -407704.08      1045.7154      2585.6489          64000   22.093156    
     25350   312.30793     -407703.47      1100.2623      2583.5736          64000   22.12433     
     25400   312.89134     -407711.02      1123.586       2588.3999          64000   22.155504    
     25450   312.15097     -407706.07      1065.6955      2582.2752          64000   22.18695     
     25500   311.99972     -407705.73      968.21929      2581.024           64000   22.218397    
     25550   313.5386      -407720.56      998.27444      2593.7543          64000   22.251173    
     25600   312.55509     -407713.44      1066.5814      2585.6183          64000   22.283949    
     25650   312.04733     -407711.74      1042.3902      2581.4178          64000   22.318409    
     25700   313.31781     -407723.7       1083.6019      2591.9279          64000   22.352869    
     25750   311.33104     -407709.06      1000.6063      2575.4923          64000   22.386827    
     25800   311.66205     -407713         910.99357      2578.2306          64000   22.420786    
     25850   312.58589     -407721.29      1014.9917      2585.873           64000   22.452435    
     25900   312.28637     -407721.29      1049.6671      2583.3953          64000   22.484083    
     25950   309.5115      -407698.99      945.80043      2560.4401          64000   22.513244    
     26000   312.40785     -407723.67      1071.1844      2584.4002          64000   22.542405    
     26050   311.90912     -407722.57      1056.4582      2580.2744          64000   22.57289     
     26100   310.76851     -407714.73      958.22015      2570.8387          64000   22.603374    
     26150   312.06619     -407725.74      978.43174      2581.5738          64000   22.636783    
     26200   311.07562     -407718.44      918.51419      2573.3793          64000   22.670192    
     26250   312.56835     -407730.51      1031.0391      2585.7279          64000   22.705672    
     26300   310.68842     -407715.37      906.99617      2570.1762          64000   22.741151    
     26350   312.40878     -407730.37      1123.7906      2584.4079          64000   22.779019    
     26400   308.8716      -407701.53      848.81204      2555.1465          64000   22.816886    
     26450   310.48262     -407715.51      1104.4819      2568.4737          64000   22.853071    
     26500   310.04886     -407712.5       1028.9081      2564.8854          64000   22.889255    
     26550   311.85947     -407729.17      1068.4409      2579.8637          64000   22.923408    
     26600   310.30104     -407719.04      993.89892      2566.9716          64000   22.957561    
     26650   311.45253     -407729.01      1007.7709      2576.4973          64000   22.986267    
     26700   310.19252     -407720.38      902.97353      2566.0739          64000   23.014973    
     26750   312.40568     -407739.24      967.02578      2584.3822          64000   23.048243    
     26800   310.47934     -407724.84      987.99043      2568.4466          64000   23.081514    
     26850   309.32503     -407715.31      935.38193      2558.8975          64000   23.114926    
     26900   311.12834     -407731.41      1089.3799      2573.8154          64000   23.148337    
     26950   310.17069     -407724.63      910.78751      2565.8932          64000   23.175401    
     27000   311.26244     -407734.27      1043.802       2574.9247          64000   23.202464    
     27050   309.20895     -407717.94      949.19051      2557.9372          64000   23.229808    
     27100   311.62839     -407738.92      1014.4542      2577.9521          64000   23.257152    
     27150   310.4067      -407730.7       1109.9159      2567.8456          64000   23.285553    
     27200   309.87494     -407726.43      885.59867      2563.4467          64000   23.313953    
     27250   309.40953     -407722.52      1024.712       2559.5965          64000   23.345848    
     27300   309.77259     -407726.34      1031.7057      2562.5999          64000   23.377743    
     27350   309.76487     -407727.34      1049.4643      2562.5361          64000   23.413595    
     27400   309.23391     -407723.39      940.73817      2558.1437          64000   23.449446    
     27450   311.14135     -407740.18      977.89964      2573.9231          64000   23.48563     
     27500   310.77669     -407738.77      924.84732      2570.9064          64000   23.521814    
     27550   309.30187     -407728.55      973.19661      2558.7059          64000   23.553725    
     27600   309.76093     -407732.59      984.90109      2562.5035          64000   23.585637    
     27650   309.22537     -407730.73      1000.1249      2558.0731          64000   23.620924    
     27700   310.6317      -407743.93      934.8137       2569.7069          64000   23.65621     
     27750   309.7238      -407736.86      972.89927      2562.1963          64000   23.691256    
     27800   308.89602     -407731.48      859.09775      2555.3485          64000   23.726302    
     27850   309.93279     -407739.66      878.52107      2563.9252          64000   23.762745    
     27900   308.41148     -407728.68      914.91132      2551.3401          64000   23.799188    
     27950   310.97175     -407750.93      1144.1202      2572.52            64000   23.833648    
     28000   308.22581     -407729.24      872.99401      2549.8042          64000   23.868109    
     28050   309.57037     -407740.32      968.01105      2560.9271          64000   23.898475    
     28100   309.07428     -407738.43      962.39397      2556.8232          64000   23.928842    
     28150   308.60569     -407734.44      856.56809      2552.9468          64000   23.964038    
     28200   308.40034     -407734.19      954.72686      2551.248           64000   23.999235    
     28250   308.63864     -407737.2       1064.6917      2553.2193          64000   24.036192    
     28300   307.58233     -407728.24      958.85195      2544.481           64000   24.07315     
     28350   307.13931     -407726.46      962.54463      2540.8161          64000   24.109347    
     28400   308.67077     -407739.2       974.25779      2553.4852          64000   24.145544    
     28450   308.1762      -407735.35      897.08938      2549.3938          64000   24.181443    
     28500   309.3685      -407746.61      946.07238      2559.2571          64000   24.217342    
     28550   309.33057     -407746.78      1013.6192      2558.9434          64000   24.255224    
     28600   306.4148      -407722.62      768.54962      2534.8226          64000   24.293106    
     28650   311.24284     -407763.38      1134.0263      2574.7627          64000   24.327921    
     28700   307.23273     -407731.63      881.3574       2541.5889          64000   24.362736    
     28750   309.06083     -407747.39      878.23373      2556.7119          64000   24.398725    
     28800   308.79776     -407746.16      903.35635      2554.5356          64000   24.434714    
     28850   308.65583     -407745.05      1088.6253      2553.3615          64000   24.466853    
     28900   309.65446     -407754.47      957.22289      2561.6227          64000   24.498991    
     28950   308.41234     -407744.07      872.00598      2551.3472          64000   24.53508     
     29000   309.27        -407751.22      898.24437      2558.4423          64000   24.571169    
     29050   309.10485     -407748.65      934.0464       2557.076           64000   24.605122    
     29100   308.43047     -407743.71      927.38236      2551.4972          64000   24.639075    
     29150   306.63036     -407727.98      914.91905      2536.6058          64000   24.672434    
     29200   308.51502     -407744.32      960.65471      2552.1966          64000   24.705792    
     29250   309.85816     -407755.93      977.70547      2563.3078          64000   24.74221     
     29300   306.78575     -407730.64      778.0268       2537.8913          64000   24.778628    
     29350   308.93966     -407748.95      1031.857       2555.7096          64000   24.818144    
     29400   307.46848     -407738.28      845.33952      2543.5392          64000   24.857661    
     29450   309.28068     -407753.78      914.97535      2558.5306          64000   24.893066    
     29500   308.22661     -407746.69      941.38105      2549.8108          64000   24.92847     
     29550   307.88051     -407744.43      877.38568      2546.9477          64000   24.963895    
     29600   309.1585      -407755.95      928.83342      2557.5198          64000   24.999319    
     29650   309.81902     -407762.3       983.31532      2562.9841          64000   25.038073    
     29700   307.00859     -407741.14      777.69244      2539.7347          64000   25.076827    
     29750   310.19866     -407766.93      984.4303       2566.1247          64000   25.111254    
     29800   308.07432     -407751.26      966.45196      2548.551           64000   25.145681    
     29850   307.27142     -407744.5       867.97905      2541.909           64000   25.18356     
     29900   308.51009     -407756.61      940.17759      2552.1559          64000   25.221439    
     29950   307.13693     -407745.36      823.44462      2540.7964          64000   25.256438    
     30000   308.45091     -407757.5       881.13175      2551.6663          64000   25.291437    
     30050   308.39368     -407757.84      974.36646      2551.1929          64000   25.33172     
     30100   307.73153     -407754.26      911.98933      2545.7153          64000   25.372003    
     30150   308.20047     -407757.76      912.93338      2549.5945          64000   25.409539    
     30200   306.63673     -407744.8       848.43596      2536.6585          64000   25.447074    
     30250   307.49586     -407751.94      928.31037      2543.7657          64000   25.48282     
     30300   307.76602     -407754.86      924.44692      2546.0006          64000   25.518565    
     30350   308.05416     -407757.49      944.39665      2548.3842          64000   25.555012    
     30400   306.57877     -407745.18      910.35459      2536.179           64000   25.591458    
     30450   307.68629     -407755.45      879.45994      2545.341           64000   25.627057    
     30500   308.02887     -407759.62      890.40479      2548.175           64000   25.662656    
     30550   307.45889     -407754.88      875.70911      2543.4599          64000   25.695856    
     30600   307.72813     -407757.87      919.14823      2545.6871          64000   25.729056    
     30650   306.45462     -407747.93      881.84533      2535.152           64000   25.765114    
     30700   307.96384     -407761.66      974.83873      2547.637           64000   25.801172    
     30750   306.67173     -407752.11      955.43978      2536.948           64000   25.836324    
     30800   305.75497     -407745.48      757.7351       2529.3641          64000   25.871476    
     30850   307.89115     -407763.28      841.72199      2547.0357          64000   25.908377    
     30900   306.77614     -407754.99      826.36244      2537.8117          64000   25.945277    
     30950   307.79728     -407763.72      1027.8999      2546.2591          64000   25.981816    
     31000   307.83031     -407766.18      949.59582      2546.5324          64000   26.018356    
     31050   305.97448     -407749.19      754.5508       2531.18            64000   26.055593    
     31100   307.0584      -407757.42      892.84708      2540.1468          64000   26.092831    
     31150   307.35421     -407760.11      920.36874      2542.5939          64000   26.13072     
     31200   307.80368     -407764.28      912.18207      2546.3121          64000   26.168609    
     31250   308.14494     -407767.84      968.4054       2549.1352          64000   26.203257    
     31300   306.41882     -407754.13      778.12196      2534.8558          64000   26.237906    
     31350   308.18044     -407769.13      870.10783      2549.4288          64000   26.275016    
     31400   307.15568     -407760.8       843.81362      2540.9515          64000   26.312126    
     31450   306.91363     -407758.85      860.64319      2538.9491          64000   26.350625    
     31500   306.47602     -407756.17      912.20059      2535.329           64000   26.389124    
     31550   307.00342     -407760.96      923.20495      2539.692           64000   26.424401    
     31600   307.36027     -407766.66      860.34646      2542.644           64000   26.459679    
     31650   307.62489     -407769.05      913.79616      2544.8331          64000   26.497963    
     31700   305.31927     -407751.09      855.59568      2525.7598          64000   26.536246    
     31750   305.98369     -407757.99      895.41812      2531.2562          64000   26.574659    
     31800   305.99039     -407757.85      828.69682      2531.3116          64000   26.613072    
     31850   306.88338     -407765.84      1031.9895      2538.6989          64000   26.648353    
     31900   305.76342     -407757.56      831.00762      2529.434           64000   26.683633    
     31950   306.75651     -407765.33      907.67143      2537.6493          64000   26.717807    
     32000   306.88214     -407768.06      886.98321      2538.6887          64000   26.751982    
     32050   307.06839     -407768.8       790.92992      2540.2294          64000   26.790797    
     32100   306.82523     -407766.77      876.36017      2538.2179          64000   26.829613    
     32150   306.45431     -407764.12      850.30437      2535.1494          64000   26.867644    
     32200   305.41682     -407755.11      797.13502      2526.5668          64000   26.905674    
     32250   306.81072     -407766.42      918.70343      2538.0978          64000   26.943286    
     32300   307.5786      -407773.81      933.68888      2544.4501          64000   26.980897    
     32350   304.32156     -407745.34      721.01495      2517.5062          64000   27.0185      
     32400   307.47435     -407771.83      960.22648      2543.5877          64000   27.056102    
     32450   305.6861      -407758.93      876.4529       2528.7944          64000   27.094243    
     32500   304.44421     -407748.98      810.36832      2518.5208          64000   27.132384    
     32550   306.67261     -407768.92      1003.1123      2536.9553          64000   27.170565    
     32600   304.72051     -407753.42      826.7072       2520.8065          64000   27.208747    
     32650   305.97699     -407764.76      887.52043      2531.2008          64000   27.248228    
     32700   306.59554     -407770.36      848.69134      2536.3177          64000   27.28771     
     32750   305.06132     -407758.04      845.00826      2523.6259          64000   27.32402     
     32800   305.75688     -407764.78      897.33723      2529.3799          64000   27.360329    
     32850   305.98864     -407767.86      914.58915      2531.2972          64000   27.39549     
     32900   305.74737     -407766.54      775.58795      2529.3012          64000   27.430651    
     32950   306.46726     -407773.79      902.41625      2535.2566          64000   27.467877    
     33000   304.42453     -407757.73      827.56246      2518.358           64000   27.505103    
     33050   305.80024     -407768.44      862.59275      2529.7386          64000   27.539489    
     33100   306.54825     -407776.07      908.37634      2535.9266          64000   27.573875    
     33150   306.87163     -407779.13      984.21214      2538.6017          64000   27.61028     
     33200   304.73706     -407762.94      672.7542       2520.9434          64000   27.646686    
     33250   307.86271     -407790.1       907.3649       2546.8004          64000   27.685397    
     33300   305.68096     -407771.7       797.42534      2528.7519          64000   27.724109    
     33350   305.67926     -407772.45      862.47689      2528.7378          64000   27.761462    
     33400   306.81217     -407782.95      934.40876      2538.1098          64000   27.798815    
     33450   304.81737     -407767.16      760.07213      2521.6078          64000   27.834871    
     33500   306.06053     -407777.73      827.50117      2531.8919          64000   27.870926    
     33550   304.77181     -407768.27      808.14421      2521.2309          64000   27.905995    
     33600   303.1925      -407754.43      731.31067      2508.166           64000   27.941064    
     33650   306.58628     -407782.98      938.04889      2536.2411          64000   27.973561    
     33700   304.97708     -407770.52      766.44898      2522.929           64000   28.006057    
     33750   304.82277     -407768.23      778.32861      2521.6524          64000   28.043324    
     33800   305.45305     -407774.33      921.39896      2526.8665          64000   28.080591    
     33850   304.2162      -407763.97      792.43927      2516.6346          64000   28.116876    
     33900   306.08731     -407781.26      991.93         2532.1134          64000   28.153161    
     33950   304.94569     -407772.05      790.94544      2522.6693          64000   28.191616    
     34000   304.23076     -407764.91      777.96952      2516.755           64000   28.230071    
     34050   305.8116      -407779.34      945.72989      2529.8326          64000   28.266345    
     34100   303.53328     -407759.46      807.96738      2510.9852          64000   28.30262     
     34150   303.99599     -407764.55      882.98052      2514.8129          64000   28.340187    
     34200   304.66472     -407769.34      826.44249      2520.345           64000   28.377755    
     34250   305.34961     -407775.44      785.92697      2526.0108          64000   28.417014    
     34300   304.77771     -407771.2       688.68747      2521.2797          64000   28.456274    
     34350   306.95478     -407790.53      956.40615      2539.2896          64000   28.492942    
     34400   304.51718     -407770.52      796.44349      2519.1245          64000   28.52961     
     34450   305.72111     -407781.63      825.49505      2529.084           64000   28.565841    
     34500   305.07147     -407776.81      749.01684      2523.7098          64000   28.602073    
     34550   305.05271     -407777.94      839.86998      2523.5546          64000   28.640521    
     34600   304.71479     -407776.36      799.08633      2520.7592          64000   28.678969    
     34650   304.73536     -407777.82      833.21529      2520.9294          64000   28.717058    
     34700   304.61781     -407777.4       837.08988      2519.9569          64000   28.755147    
     34750   304.52524     -407777.29      754.69244      2519.1912          64000   28.792384    
     34800   304.52659     -407777.21      732.5243       2519.2023          64000   28.829621    
     34850   304.89628     -407781.6       865.80025      2522.2606          64000   28.866263    
     34900   305.12549     -407784.84      822.86614      2524.1567          64000   28.902904    
     34950   304.69608     -407782.07      805.09921      2520.6044          64000   28.941753    
     35000   304.25194     -407778.17      818.97923      2516.9302          64000   28.980602    
     35050   304.45616     -407781.57      870.11452      2518.6197          64000   29.020596    
     35100   302.8032      -407768.64      745.58002      2504.9455          64000   29.06059     
     35150   303.4245      -407773.73      790.1051       2510.0853          64000   29.099162    
     35200   304.55938     -407784.86      832.13156      2519.4736          64000   29.137735    
     35250   303.71583     -407777.96      809.41687      2512.4953          64000   29.175184    
     35300   302.90043     -407772.93      823.68017      2505.7499          64000   29.212633    
     35350   302.73335     -407772.35      773.40131      2504.3677          64000   29.247334    
     35400   305.15644     -407793.64      853.0772       2524.4127          64000   29.282034    
     35450   302.59621     -407771.91      765.40319      2503.2332          64000   29.319603    
     35500   304.29047     -407786.01      905.85905      2517.249           64000   29.357171    
     35550   301.54412     -407764.1       692.41964      2494.5297          64000   29.389888    
     35600   304.05655     -407786.22      893.82122      2515.3139          64000   29.422604    
     35650   302.77837     -407775.52      846.92274      2504.7402          64000   29.462009    
     35700   302.74259     -407775.68      809.18091      2504.4441          64000   29.501415    
     35750   303.15197     -407778.64      818.62247      2507.8308          64000   29.538137    
     35800   303.7914      -407783.65      852.74891      2513.1204          64000   29.57486     
     35850   303.11024     -407777.69      774.94498      2507.4855          64000   29.610769    
     35900   303.26049     -407777.78      813.32428      2508.7285          64000   29.646679    
     35950   302.32944     -407770.16      775.03761      2501.0263          64000   29.686432    
     36000   304.17702     -407786.1       845.98933      2516.3105          64000   29.726185    
     36050   303.35387     -407778.46      765.26002      2509.5009          64000   29.767261    
     36100   304.60169     -407790.97      731.82716      2519.8236          64000   29.808338    
     36150   302.79282     -407775         733.88003      2504.8597          64000   29.839766    
     36200   304.99099     -407794.4       866.55059      2523.0441          64000   29.871194    
     36250   303.24407     -407780.94      681.66984      2508.5927          64000   29.906071    
     36300   304.78548     -407793.5       819.80915      2521.344           64000   29.940948    
     36350   303.65461     -407784.47      631.79909      2511.9889          64000   29.977684    
     36400   305.24764     -407798.39      858.04925      2525.1672          64000   30.014421    
     36450   303.96492     -407788.2       812.53166      2514.5559          64000   30.050126    
     36500   304.03373     -407789.21      804.32052      2515.1251          64000   30.085831    
     36550   304.36436     -407792.69      754.61563      2517.8602          64000   30.124663    
     36600   303.23706     -407783.19      718.49466      2508.5347          64000   30.163496    
     36650   305.32286     -407801.66      915.73334      2525.7895          64000   30.199555    
     36700   303.92359     -407790.98      682.35622      2514.214           64000   30.235613    
     36750   303.80088     -407790.05      713.85844      2513.1989          64000   30.275233    
     36800   303.81457     -407791.08      887.12733      2513.3121          64000   30.314854    
     36850   301.40396     -407770.91      671.14878      2493.3703          64000   30.351967    
     36900   303.8775      -407792.01      889.72238      2513.8327          64000   30.38908     
     36950   302.23057     -407778.98      752.53918      2500.2084          64000   30.426534    
     37000   303.60962     -407791.42      780.43142      2511.6167          64000   30.463989    
     37050   302.93742     -407785.43      769.05256      2506.0559          64000   30.503405    
     37100   301.73397     -407775.07      724.32846      2496.1003          64000   30.542821    
     37150   303.26318     -407787.44      818.95257      2508.7507          64000   30.579259    
     37200   302.84482     -407783.8       797.29293      2505.2898          64000   30.615698    
     37250   303.94624     -407793.43      838.8206       2514.4013          64000   30.6533      
     37300   302.5923      -407781.45      743.33722      2503.2008          64000   30.690903    
     37350   303.39272     -407788.5       823.64654      2509.8223          64000   30.728961    
[...]
     40650   303.51341     -407788.82      823.18072      2510.8207          64000   33.221714    
     40700   303.62558     -407791.46      839.59806      2511.7487          64000   33.261033    
     40750   302.15042     -407779.5       742.47788      2499.5454          64000   33.297835    
     40800   303.29971     -407788.94      822.17388      2509.0529          64000   33.334637    
     40850   302.87881     -407785.73      840.07541      2505.571           64000   33.369855    
     40900   302.51912     -407784.74      861.08743      2502.5954          64000   33.405072    
     40950   303.07795     -407789.55      825.98247      2507.2184          64000   33.444251    
     41000   302.69689     -407787.19      854.38523      2504.0661          64000   33.483429    
     41050   302.25178     -407783.98      813.32077      2500.3839          64000   33.521436    
     41100   303.10365     -407791.1       880.93793      2507.431           64000   33.559442    
     41150   301.62098     -407777.27      766.14142      2495.1656          64000   33.597264    
     41200   302.60431     -407785.2       709.39303      2503.3002          64000   33.635085    
     41250   302.0039      -407779.16      707.74063      2498.3333          64000   33.669475    
     41300   303.24086     -407789.83      928.64855      2508.566           64000   33.703866    
     41350   302.36056     -407783.38      827.51274      2501.2838          64000   33.738085    
     41400   303.69785     -407794.26      801.10655      2512.3466          64000   33.772305    
     41450   302.75289     -407786.1       731.53189      2504.5294          64000   33.810236    
     41500   304.76219     -407803.53      887.7053       2521.1513          64000   33.848167    
     41550   302.89588     -407788.1       800.2209       2505.7122          64000   33.887101    
     41600   301.61719     -407776.96      784.35078      2495.1342          64000   33.926035    
     41650   302.8737      -407787.2       850.96523      2505.5288          64000   33.963938    
     41700   302.37534     -407783.69      776.30766      2501.4061          64000   34.001841    
     41750   302.41189     -407783.49      731.98666      2501.7084          64000   34.037674    
     41800   303.13556     -407790.24      759.11152      2507.695           64000   34.073507    
     41850   303.54213     -407794.42      840.49563      2511.0584          64000   34.10962     
     41900   302.15132     -407782.82      752.21588      2499.5528          64000   34.145734    
     41950   302.86208     -407789.63      835.77047      2505.4326          64000   34.182605    
     42000   303.05912     -407792.34      789.89686      2507.0626          64000   34.219476    
     42050   303.2057      -407794.83      758.7504       2508.2752          64000   34.255681    
     42100   302.39733     -407788.62      742.38441      2501.5879          64000   34.291887    
     42150   301.78655     -407783.48      777.38322      2496.5353          64000   34.331017    
     42200   301.79257     -407783.92      847.79571      2496.5851          64000   34.370147    
     42250   301.83864     -407783.53      777.57937      2496.9662          64000   34.407793    
     42300   301.95023     -407784.9       790.59133      2497.8893          64000   34.445438    
     42350   301.91572     -407785.3       749.1209       2497.6038          64000   34.482619    
     42400   302.01717     -407785.79      814.40787      2498.4431          64000   34.5198      
     42450   301.57421     -407782.48      813.32942      2494.7787          64000   34.556703    
     42500   302.1757      -407787.61      857.48075      2499.7545          64000   34.593606    
     42550   301.3941      -407781.97      828.62763      2493.2888          64000   34.629057    
     42600   300.27134     -407772.77      704.14546      2484.0007          64000   34.664508    
     42650   301.66108     -407784.04      804.33384      2495.4974          64000   34.702805    
     42700   301.36737     -407781.74      870.2235       2493.0676          64000   34.741102    
     42750   302.10989     -407788.29      897.4781       2499.2101          64000   34.778367    
     42800   302.45015     -407791.64      750.54145      2502.0249          64000   34.815633    
     42850   303.2407      -407798.25      848.80535      2508.5648          64000   34.853637    
     42900   302.31799     -407790.68      748.25588      2500.9316          64000   34.891641    
     42950   302.39648     -407791.83      803.03953      2501.5809          64000   34.929125    
     43000   303.06978     -407797.74      837.14813      2507.1508          64000   34.966609    
     43050   301.93725     -407788.35      729.95108      2497.7819          64000   35.003348    
     43100   303.79324     -407804.16      811.53094      2513.1357          64000   35.040087    
     43150   302.39903     -407792.16      778.30674      2501.602           64000   35.077168    
     43200   301.42154     -407783.22      712.47193      2493.5157          64000   35.11425     
     43250   302.41642     -407791.12      788.54485      2501.7459          64000   35.15023     
     43300   301.87086     -407787.07      822.84745      2497.2327          64000   35.186211    
     43350   301.78506     -407786.3       738.66545      2496.5229          64000   35.224573    
     43400   302.25384     -407789.84      806.85107      2500.4009          64000   35.262936    
     43450   301.92449     -407786.54      850.87444      2497.6764          64000   35.29956     
     43500   302.43646     -407791.48      871.54541      2501.9117          64000   35.336184    
     43550   302.09484     -407787.7       701.44816      2499.0856          64000   35.372638    
     43600   303.11296     -407795.68      804.76013      2507.5081          64000   35.409092    
     43650   302.59928     -407789.88      685.93098      2503.2586          64000   35.446505    
     43700   303.09553     -407792.47      775.44225      2507.3638          64000   35.483918    
     43750   303.85417     -407798.98      827.64604      2513.6397          64000   35.522096    
     43800   303.01921     -407792.03      769.80554      2506.7325          64000   35.560275    
     43850   302.89322     -407790.51      781.89347      2505.6903          64000   35.596272    
     43900   302.69236     -407788.27      690.68004      2504.0286          64000   35.63227     
     43950   305.26751     -407809.01      754.47583      2525.3316          64000   35.666255    
     44000   302.67088     -407787.51      789.35634      2503.8509          64000   35.70024     
     44050   302.54841     -407786.27      794.18318      2502.8378          64000   35.73522     
     44100   303.52721     -407794.07      859.73516      2510.9349          64000   35.7702      
     44150   302.15754     -407783.28      815.54096      2499.6043          64000   35.802988    
     44200   303.12023     -407790.46      643.77147      2507.5682          64000   35.835776    
     44250   304.21153     -407799.07      740.7692       2516.596           64000   35.873219    
     44300   303.76899     -407795.31      835.67258      2512.9351          64000   35.910662    
     44350   303.11356     -407789.71      728.47667      2507.513           64000   35.949874    
     44400   303.60895     -407793.97      917.90429      2511.6111          64000   35.989086    
     44450   301.98414     -407781.96      755.25085      2498.1698          64000   36.026801    
     44500   302.51485     -407786.18      702.44117      2502.5602          64000   36.064516    
     44550   302.37899     -407785.66      748.97428      2501.4363          64000   36.102476    
     44600   303.33339     -407794.49      815.56461      2509.3315          64000   36.140435    
     44650   303.47802     -407797.02      763.68121      2510.528           64000   36.176847    
     44700   302.97957     -407793.13      742.46744      2506.4045          64000   36.213259    
     44750   302.7427      -407792.16      781.65073      2504.445           64000   36.251639    
     44800   303.01186     -407795.85      861.72714      2506.6717          64000   36.29002     
     44850   302.23645     -407790.8       752.26091      2500.2571          64000   36.328573    
     44900   302.33349     -407791.62      709.05299      2501.0599          64000   36.367127    
     44950   302.7684      -407796.02      732.44696      2504.6576          64000   36.40316     
     45000   302.66252     -407795.93      788.6445       2503.7818          64000   36.439193    
     45050   302.56932     -407795.73      698.80818      2503.0107          64000   36.477001    
     45100   303.58908     -407804.71      860.16804      2511.4468          64000   36.514809    
     45150   301.78421     -407790.9       739.29096      2496.5159          64000   36.552181    
     45200   302.99755     -407800.58      786.82184      2506.5533          64000   36.589554    
     45250   302.38358     -407795.84      745.9368       2501.4742          64000   36.626849    
     45300   302.84147     -407799.41      770.92454      2505.2621          64000   36.664144    
     45350   302.07947     -407793.68      771.72349      2498.9584          64000   36.704983    
     45400   301.55808     -407789.47      818.90022      2494.6452          64000   36.745822    
     45450   301.26524     -407786.83      731.10617      2492.2227          64000   36.783744    
     45500   302.27738     -407794.89      759.88565      2500.5957          64000   36.821667    
     45550   301.47794     -407787.19      725.61226      2493.9823          64000   36.857873    
     45600   302.95804     -407799.52      844.86831      2506.2265          64000   36.894078    
     45650   302.57434     -407797.15      723.56242      2503.0523          64000   36.930352    
     45700   302.94847     -407799.45      715.07424      2506.1473          64000   36.966625    
     45750   302.1097      -407791.92      747.35407      2499.2086          64000   37.002361    
     45800   303.33282     -407802.34      783.20688      2509.3268          64000   37.038097    
     45850   303.26047     -407802.92      799.38355      2508.7283          64000   37.074013    
     45900   302.04157     -407792.79      727.57095      2498.645           64000   37.109929    
     45950   302.09873     -407792.7       926.66084      2499.1178          64000   37.143378    
     46000   301.26991     -407785.5       632.06996      2492.2614          64000   37.176827    
     46050   302.71788     -407796.41      757.5998       2504.2397          64000   37.213793    
     46100   302.88791     -407798.01      825.75748      2505.6463          64000   37.250759    
     46150   301.11823     -407783.25      756.39464      2491.0066          64000   37.291158    
     46200   302.43735     -407793.91      817.59837      2501.9191          64000   37.331557    
     46250   302.78685     -407797.14      790.7628       2504.8103          64000   37.367675    
     46300   301.68948     -407788.7       753.14738      2495.7322          64000   37.403793    
     46350   301.70431     -407788.02      732.05288      2495.855           64000   37.439667    
     46400   302.85405     -407798.1       727.3473       2505.3662          64000   37.475541    
     46450   302.16239     -407791.82      731.91019      2499.6444          64000   37.512904    
     46500   302.00851     -407791.31      765.54849      2498.3715          64000   37.550266    
     46550   302.54236     -407796.2       722.60039      2502.7877          64000   37.589286    
     46600   303.53722     -407805.7       822.46351      2511.0177          64000   37.628305    
     46650   302.55283     -407798.5       773.18096      2502.8743          64000   37.662757    
     46700   301.65247     -407791.7       824.19067      2495.4261          64000   37.697208    
     46750   303.09765     -407804.72      772.90446      2507.3814          64000   37.733219    
     46800   302.96779     -407803.68      693.37317      2506.3071          64000   37.769231    
     46850   304.1132      -407813.85      805.3506       2515.7825          64000   37.806606    
     46900   301.90922     -407795.78      665.45267      2497.5501          64000   37.843982    
     46950   302.507       -407801.48      759.03192      2502.4952          64000   37.882379    
     47000   302.23035     -407798.85      778.32964      2500.2066          64000   37.920777    
     47050   301.87928     -407795.98      780.68636      2497.3024          64000   37.95464     
     47100   301.80534     -407795.51      800.46538      2496.6907          64000   37.988504    
     47150   301.93721     -407797.54      803.88796      2497.7816          64000   38.024447    
     47200   301.81686     -407796.63      731.80432      2496.786           64000   38.060389    
     47250   301.66931     -407797.41      797.39737      2495.5654          64000   38.099826    
     47300   301.68873     -407797.05      814.16781      2495.7261          64000   38.139262    
     47350   301.1349      -407792.63      768.63939      2491.1445          64000   38.17875     
     47400   303.21912     -407809.9       782.6677       2508.3862          64000   38.218238    
     47450   303.23804     -407811.04      704.52112      2508.5428          64000   38.257179    
     47500   302.2892      -407801.78      689.6456       2500.6935          64000   38.29612     
     47550   301.94187     -407799.1       810.96575      2497.8202          64000   38.328016    
     47600   300.99391     -407791.74      731.43533      2489.9782          64000   38.359911    
     47650   302.23334     -407802         797.30336      2500.2313          64000   38.396856    
     47700   301.66546     -407797.26      830.18474      2495.5336          64000   38.4338      
     47750   301.6916      -407797.34      874.63604      2495.7498          64000   38.473228    
     47800   300.34268     -407786.29      744.08497      2484.5909          64000   38.512656    
     47850   301.47054     -407794.4       849.76431      2493.921           64000   38.552487    
     47900   300.79817     -407789.32      692.78813      2488.3589          64000   38.592318    
     47950   302.41297     -407802.91      855.63381      2501.7174          64000   38.62736     
     48000   301.53567     -407795.72      770.21189      2494.4598          64000   38.662403    
     48050   302.57536     -407804.32      811.42186      2503.0607          64000   38.699226    
     48100   301.49993     -407795.56      786.38992      2494.1642          64000   38.736049    
     48150   302.04676     -407800.06      797.52401      2498.6879          64000   38.774243    
     48200   301.60654     -407796.33      798.29332      2495.0461          64000   38.812436    
     48250   302.11609     -407800.32      793.37701      2499.2614          64000   38.848934    
     48300   301.97072     -407799.13      741.78878      2498.0588          64000   38.885431    
     48350   302.03178     -407799.34      792.96553      2498.5639          64000   38.925195    
     48400   301.92158     -407798.26      767.61442      2497.6523          64000   38.964959    
     48450   301.90893     -407797.56      781.9417       2497.5477          64000   39.003174    
     48500   302.14953     -407800.83      843.77188      2499.538           64000   39.041388    
     48550   302.57654     -407804.39      832.17906      2503.0705          64000   39.07715     
     48600   301.56434     -407794.96      735.62693      2494.697           64000   39.112911    
     48650   301.78197     -407797.02      845.35267      2496.4974          64000   39.151471    
     48700   301.41014     -407794.68      807.58529      2493.4214          64000   39.190031    
     48750   301.51408     -407796.46      745.74958      2494.2812          64000   39.226011    
     48800   302.57404     -407806.04      788.19302      2503.0498          64000   39.261991    
     48850   302.37759     -407804.52      756.07938      2501.4247          64000   39.299714    
     48900   301.08688     -407794.16      756.09186      2490.7472          64000   39.337437    
     48950   301.06034     -407794.05      803.47986      2490.5277          64000   39.377337    
     49000   300.87442     -407791.72      815.12298      2488.9897          64000   39.417236    
     49050   301.05201     -407793.59      862.82576      2490.4588          64000   39.452609    
     49100   301.27913     -407795.19      819.06973      2492.3376          64000   39.487982    
     49150   301.23372     -407795.03      844.29344      2491.962           64000   39.524704    
     49200   301.34057     -407796.15      783.42762      2492.8459          64000   39.561426    
     49250   300.41125     -407788.75      738.96443      2485.1581          64000   39.598263    
     49300   301.84555     -407800.73      881.27234      2497.0233          64000   39.635099    
     49350   301.00957     -407794.21      748.37248      2490.1077          64000   39.674049    
     49400   301.37966     -407796.54      809.97049      2493.1693          64000   39.712999    
     49450   301.48444     -407797.13      873.80679      2494.0361          64000   39.751992    
     49500   301.65212     -407799.42      789.0885       2495.4232          64000   39.790984    
     49550   301.29047     -407797.71      842.85527      2492.4314          64000   39.823586    
     49600   302.23574     -407804.98      835.69791      2500.2512          64000   39.856187    
     49650   301.19786     -407797.54      662.40712      2491.6654          64000   39.894166    
     49700   301.51767     -407798.93      801.13343      2494.311           64000   39.932145    
     49750   301.67133     -407800.11      788.54962      2495.5821          64000   39.967918    
     49800   302.27796     -407805.49      759.48995      2500.6005          64000   40.003691    
     49850   301.95442     -407802.12      752.83894      2497.924           64000   40.042628    
     49900   302.29927     -407806.54      857.05852      2500.7767          64000   40.081565    
     49950   300.51555     -407791.51      747.27662      2486.0209          64000   40.12026     
     50000   301.81297     -407803.33      900.93725      2496.7538          64000   40.158955    
Loop time of 5679.3 on 4 procs for 30000 steps with 64000 atoms

Performance: 0.349 ns/day, 68.794 hours/ns, 5.282 timesteps/s
93.3% CPU use with 4 MPI tasks x 1 OpenMP threads

MPI task timing breakdown:
Section |  min time  |  avg time  |  max time  |%varavg| %total
---------------------------------------------------------------
Pair    | 4680.2     | 4707       | 4728.3     |  25.3 | 82.88
Bond    | 0.010874   | 0.011659   | 0.012339   |   0.6 |  0.00
Neigh   | 3.3925     | 3.4221     | 3.4541     |   1.2 |  0.06
Comm    | 589.82     | 611.38     | 638.28     |  70.5 | 10.77
Output  | 306.09     | 306.28     | 306.83     |   1.8 |  5.39
Modify  | 39.49      | 39.838     | 40.333     |   5.5 |  0.70
Other   |            | 11.32      |            |       |  0.20

Nlocal:          16000 ave       16028 max       15954 min
Histogram: 1 0 0 0 0 1 0 0 0 2
Nghost:        10734.8 ave       10782 max       10706 min
Histogram: 2 0 0 0 1 0 0 0 0 1
Neighs:              0 ave           0 max           0 min
Histogram: 4 0 0 0 0 0 0 0 0 0
FullNghs:       735756 ave      737107 max      733704 min
Histogram: 1 0 0 0 1 0 0 0 0 2

Total # of neighbors = 2943022
Ave neighs/atom = 45.984719
Ave special neighs/atom = 0
Neighbor list builds = 39
Dangerous builds = 0
Total wall time: 2:50:04
