
# ====================================
read_data       Output/data.2T-SiC_Modelled
Reading data file ...
  orthogonal box = (0 0 0) to (87.2 87.2 87.2)
  1 by 2 by 2 MPI processor grid
  reading atoms ...
  64000 atoms
  reading velocities ...
  64000 velocities
Finding 1-2 1-3 1-4 neighbors ...
  special bond factors lj:    0        0        0       
  special bond factors coul:  0        0        0       
     0 = max # of 1-2 neighbors
     0 = max # of 1-3 neighbors
     0 = max # of 1-4 neighbors
     1 = max # of special neighbors
  special bonds CPU = 0.004 seconds
  read_data CPU = 0.329 seconds
group           Center type 1 2
41089 atoms in group Center
group           Perim  type 3 4
22911 atoms in group Perim
# ====================================
pair_style      gw/zbl
pair_coeff      * *  potential/SiC.gw.zbl   C  Si   C   Si    C
Reading gw/zbl potential file potential/SiC.gw.zbl with DATE: 2016-05-06

# -- OR ---
# pair_style      tersoff/zbl
# pair_coeff      * *  potential/SiC.tersoff.zbl   C  Si   C   Si    C

# ====================================
velocity        all create 300 5287287
thermo_style    custom step temp epair press ke atoms time
thermo          50
thermo_modify   lost warn

######################################
# DUMP

dump            DUMP1 all custom 50 Output/dump-2T-SiC-GW-${trial}.lammpstrj id type xs ys zs x y z vx vy vz
dump            DUMP1 all custom 50 Output/dump-2T-SiC-GW-1.lammpstrj id type xs ys zs x y z vx vy vz
# dump            DUMP2 all yaml   50 Output/dump-2T-SiC-GW-${trial}.yaml id type x y z vx vy vz
# dump_modify     DUMP2 time yes units yes thermo yes

# -------------------------------------
fix             N1 all    npt temp 300 300 0.1 iso 0 0 0.1
run             4000
Neighbor list info ...
  update every 10 steps, delay 10 steps, check yes
  max neighbors/atom: 2000, page size: 100000
  master list distance cutoff = 5
  ghost atom cutoff = 5
  binsize = 2.5, bins = 35 35 35
  1 neighbor lists, perpetual/occasional/extra = 1 0 0
  (1) pair gw/zbl, perpetual
      attributes: full, newton on
      pair build: full/bin
      stencil: full/bin/3d
      bin: standard
Per MPI rank memory allocation (min/avg/max) = 19.12 | 19.12 | 19.12 Mbytes
   Step          Temp          E_pair         Press          KinEng        Atoms         Time     
         0   300           -410365.09      4031.5843      2481.756           64000   0            
        50   88.144453     -408570.35     -2590.953       729.17675          64000   0.05         
       100   134.61248     -408885.04     -21.001504      1113.5844          64000   0.1          
       150   200.75383     -409354.49      1957.831       1660.7401          64000   0.15         
       200   141.67869     -408776.28     -1752.2607      1172.0398          64000   0.2          
       250   152.03474     -408764.46     -154.39888      1257.7104          64000   0.25         
       300   209.80299     -409144.74      1408.0166      1735.5994          64000   0.3          
       350   171.42105     -408717.81     -1238.1176      1418.0841          64000   0.35         
       400   180.64347     -408680.82      17.175389      1494.3768          64000   0.4          
       450   222.9716      -408916.96      674.88161      1844.537           64000   0.45         
       500   189.49246     -408517.34     -854.86291      1567.5802          64000   0.5          
       550   221.05784     -408655.59      600.71661      1828.7054          64000   0.55         
       600   225.79223     -408569.65     -144.38884      1867.8708          64000   0.6          
       650   207.88095     -408291.79     -604.61413      1719.6993          64000   0.65         
       700   257.55832     -408575.48      1092.3082      2130.6564          64000   0.7          
       750   233.31524     -408246.11     -743.81389      1930.105           64000   0.75         
       800   238.92122     -408162.99     -295.3195       1976.4806          64000   0.8          
       850   280.58645     -408383.24      1014.2502      2321.1571          64000   0.85         
       900   251.8319      -408021.02     -804.00133      2083.2844          64000   0.9          
       950   270.43919     -408055.06      19.230655      2237.2136          64000   0.95         
      1000   291.34987     -408116.54      517.33922      2410.1976          64000   1            
      1050   277.73756     -407895.31     -506.3351       2297.5895          64000   1.05         
      1100   297.86364     -407966.15      241.65803      2464.083           64000   1.1          
      1150   296.54226     -407870.31     -103.797        2453.1518          64000   1.15         
      1200   295.08629     -407787.65     -11.214641      2441.1072          64000   1.2          
      1250   315.45099     -407902.6       312.8238       2609.5746          64000   1.25         
      1300   297.19078     -407718.9      -596.53989      2458.5167          64000   1.3          
      1350   309.69834     -407818.25      396.59165      2561.9857          64000   1.35         
      1400   313.03445     -407865.19      136.22087      2589.5838          64000   1.4          
      1450   289.3882      -407709.32     -563.63039      2393.9697          64000   1.45         
      1500   309.23724     -407922.17      514.39511      2558.1713          64000   1.5          
      1550   296.57448     -407859.41     -148.36896      2453.4183          64000   1.55         
      1600   291.05575     -407845.06     -189.86109      2407.7645          64000   1.6          
      1650   302.68595     -407953.29      353.98638      2503.9756          64000   1.65         
      1700   290.40619     -407842.02     -298.84996      2402.391           64000   1.7          
      1750   296.90056     -407869.79      123.95265      2456.1158          64000   1.75         
      1800   303.48975     -407888.11      123.23574      2510.6251          64000   1.8          
      1850   293.85596     -407773.05     -352.21258      2430.9293          64000   1.85         
      1900   309.22198     -407872.03      374.3263       2558.0451          64000   1.9          
      1950   300.62162     -407784.08     -193.75164      2486.8984          64000   1.95         
      2000   304.11112     -407814.7      -187.73473      2515.7653          64000   2            
      2050   311.05791     -407887.44      330.57354      2573.2328          64000   2.05         
      2100   291.83628     -407758.08     -260.72084      2414.2214          64000   2.1          
      2150   302.28839     -407874.72      23.48209       2500.6867          64000   2.15         
      2200   295.35986     -407847.42      199.06214      2443.3703          64000   2.2          
      2250   296.34507     -407871.77     -174.34856      2451.5205          64000   2.25         
      2300   297.26732     -407885.5       251.36399      2459.1498          64000   2.3          
      2350   297.54577     -407876.3      -171.5165       2461.4533          64000   2.35         
      2400   299.41029     -407869.19     -105.23034      2476.8776          64000   2.4          
      2450   302.53885     -407868.97      459.3459       2502.7587          64000   2.45         
      2500   296.18776     -407792.12     -635.07962      2450.2191          64000   2.5          
      2550   304.53084     -407841.72      174.69231      2519.2374          64000   2.55         
      2600   305.64714     -407841.91      677.97528      2528.4721          64000   2.6          
      2650   296.11478     -407766.32     -1163.2774      2449.6155          64000   2.65         
      2700   307.3079      -407873.68      655.78507      2542.2107          64000   2.7          
      2750   298.40932     -407821.07      46.887388      2468.5971          64000   2.75         
      2800   296.15235     -407828        -481.68422      2449.9262          64000   2.8          
      2850   302.61116     -407903.8       446.99982      2503.3569          64000   2.85         
      2900   293.09687     -407838.32     -224.85262      2424.6497          64000   2.9          
      2950   301.81268     -407910.06     -49.804323      2496.7514          64000   2.95         
      3000   294.77938     -407841.53      301.92226      2438.5683          64000   3            
      3050   298.85914     -407853.76     -248.93241      2472.3182          64000   3.05         
      3100   301.79741     -407856.33      18.989348      2496.6252          64000   3.1          
      3150   302.14965     -407837.42      220.22129      2499.539           64000   3.15         
      3200   300.22668     -407806.63     -300.501        2483.6312          64000   3.2          
      3250   305.45846     -407845.76      21.843829      2526.9112          64000   3.25         
      3300   298.49479     -407796.9       449.33562      2469.3041          64000   3.3          
      3350   305.86576     -407870.88     -528.17051      2530.2806          64000   3.35         
      3400   302.24295     -407864.52      7.8714175      2500.3108          64000   3.4          
      3450   295.54584     -407831.42      576.59952      2444.9089          64000   3.45         
      3500   299.92071     -407883.79     -500.12984      2481.1001          64000   3.5          
      3550   294.81024     -407848.2       82.828092      2438.8236          64000   3.55         
      3600   294.96156     -407847.53      218.79931      2440.0754          64000   3.6          
      3650   303.04475     -407897.96     -253.90728      2506.9438          64000   3.65         
      3700   296.03124     -407821.82      85.177488      2448.9244          64000   3.7          
      3750   305.81457     -407881.57      93.30978       2529.8572          64000   3.75         
      3800   301.90471     -407830.88     -216.29159      2497.5127          64000   3.8          
      3850   299.82223     -407805.04      220.06816      2480.2854          64000   3.85         
      3900   303.73142     -407836.71     -90.120388      2512.6243          64000   3.9          
      3950   301.777       -407831.83     -255.1893       2496.4563          64000   3.95         
      4000   296.49307     -407807.38      651.09155      2452.7449          64000   4            
Loop time of 423.59 on 4 procs for 4000 steps with 64000 atoms

Performance: 0.816 ns/day, 29.416 hours/ns, 9.443 timesteps/s
98.6% CPU use with 4 MPI tasks x 1 OpenMP threads

MPI task timing breakdown:
Section |  min time  |  avg time  |  max time  |%varavg| %total
---------------------------------------------------------------
Pair    | 358.93     | 363.42     | 367.66     |  16.9 | 85.80
Bond    | 0.0016333  | 0.001753   | 0.0018491  |   0.2 |  0.00
Neigh   | 0          | 0          | 0          |   0.0 |  0.00
Comm    | 26.912     | 31.156     | 35.735     |  58.9 |  7.36
Output  | 22.129     | 22.133     | 22.136     |   0.1 |  5.23
Modify  | 5.3505     | 5.4446     | 5.6322     |   4.8 |  1.29
Other   |            | 1.431      |            |       |  0.34

Nlocal:          16000 ave       16000 max       16000 min
Histogram: 4 0 0 0 0 0 0 0 0 0
Nghost:          10735 ave       10735 max       10735 min
Histogram: 4 0 0 0 0 0 0 0 0 0
Neighs:              0 ave           0 max           0 min
Histogram: 4 0 0 0 0 0 0 0 0 0
FullNghs:       736000 ave      736000 max      736000 min
Histogram: 4 0 0 0 0 0 0 0 0 0

Total # of neighbors = 2944000
Ave neighs/atom = 46
Ave special neighs/atom = 0
Neighbor list builds = 0
Dangerous builds = 0

unfix           N1
fix             N1 Perim  temp/berendsen 300 300 0.1
fix             N2 all    nve
run             20000 upto
Per MPI rank memory allocation (min/avg/max) = 19.12 | 19.12 | 19.12 Mbytes
   Step          Temp          E_pair         Press          KinEng        Atoms         Time     
      4000   296.49307     -407807.38      651.09155      2452.7449          64000   4            
      4050   300.59506     -407843.31      428.36785      2486.6786          64000   4.05         
      4100   302.28422     -407858.22      779.16065      2500.6522          64000   4.1          
      4150   302.49784     -407859.4       889.04439      2502.4195          64000   4.15         
      4200   302.51529     -407859.55      509.08413      2502.5638          64000   4.2          
      4250   298.33222     -407825.43      598.72687      2467.9593          64000   4.25         
      4300   299.76373     -407838.14      468.3592       2479.8015          64000   4.3          
      4350   301.82288     -407853.99      782.14377      2496.8358          64000   4.35         
      4400   301.54213     -407849.81      583.33223      2494.5133          64000   4.4          
      4450   301.77143     -407852.89      706.42632      2496.4102          64000   4.45         
      4500   297.84051     -407819.83      534.45948      2463.8916          64000   4.5          
      4550   299.43881     -407834.55      507.68116      2477.1135          64000   4.55         
      4600   302.04743     -407855.48      721.8043       2498.6934          64000   4.6          
      4650   302.15301     -407858.36      778.564        2499.5669          64000   4.65         
      4700   301.95368     -407855.13      791.08505      2497.9179          64000   4.7          
      4750   298.46898     -407826.33      475.17111      2469.0906          64000   4.75         
      4800   298.0526      -407825.91      589.00857      2465.6461          64000   4.8          
      4850   301.22783     -407852.95      548.99922      2491.9132          64000   4.85         
      4900   302.1157      -407858.53      742.94513      2499.2582          64000   4.9          
      4950   298.62701     -407829.69      592.33891      2470.3979          64000   4.95         
      5000   300.31799     -407844.38      609.40649      2484.3866          64000   5            
      5050   299.39012     -407834.83      583.56578      2476.7108          64000   5.05         
      5100   301.92585     -407855.72      728.39436      2497.6877          64000   5.1          
      5150   300.59195     -407843.41      660.91389      2486.6529          64000   5.15         
      5200   298.62993     -407828.26      657.46142      2470.4221          64000   5.2          
      5250   304.91561     -407880.02      830.64695      2522.4205          64000   5.25         
      5300   296.24738     -407806.96      427.24299      2450.7124          64000   5.3          
      5350   300.09465     -407839.06      686.6365       2482.539           64000   5.35         
      5400   304.48627     -407874.28      935.87325      2518.8688          64000   5.4          
      5450   298.80134     -407826.09      361.53452      2471.84            64000   5.45         
      5500   299.68087     -407832.17      499.37481      2479.116           64000   5.5          
      5550   300.77195     -407841.32      651.41036      2488.1419          64000   5.55         
      5600   301.88848     -407852.25      711.52297      2497.3785          64000   5.6          
      5650   300.41307     -407840.55      521.69264      2485.1732          64000   5.65         
      5700   301.7606      -407851.85      797.57266      2496.3206          64000   5.7          
      5750   301.88054     -407853.5       572.07297      2497.3128          64000   5.75         
      5800   299.95842     -407838.49      672.05476      2481.412           64000   5.8          
      5850   298.57296     -407828.62      585.46647      2469.9508          64000   5.85         
      5900   302.75307     -407865.12      801.12877      2504.5308          64000   5.9          
      5950   299.04537     -407834.25      601.34554      2473.8588          64000   5.95         
      6000   298.89774     -407834.16      548.23898      2472.6376          64000   6            
      6050   298.1338      -407828.8       607.54963      2466.3179          64000   6.05         
      6100   302.73468     -407866.25      716.11105      2504.3787          64000   6.1          
      6150   298.26045     -407828.04      709.02862      2467.3655          64000   6.15         
      6200   302.25327     -407863.91      632.91375      2500.3962          64000   6.2          
      6250   298.54089     -407832.59      616.09296      2469.6855          64000   6.25         
      6300   300.90152     -407852.76      729.77299      2489.2139          64000   6.3          
      6350   300.25683     -407848.13      484.81006      2483.8806          64000   6.35         
      6400   300.24469     -407846.67      811.77161      2483.7802          64000   6.4          
      6450   302.25016     -407864.43      613.70969      2500.3705          64000   6.45         
      6500   295.87738     -407810.27      572.77764      2447.6515          64000   6.5          
      6550   300.82348     -407851.11      550.95314      2488.5683          64000   6.55         
      6600   301.11577     -407851.06      759.80133      2490.9862          64000   6.6          
      6650   299.64119     -407840.94      617.92749      2478.7878          64000   6.65         
      6700   301.78075     -407856.28      724.24108      2496.4873          64000   6.7          
      6750   299.34411     -407834.43      545.22949      2476.3301          64000   6.75         
      6800   299.1059      -407836.08      727.34332      2474.3595          64000   6.8          
      6850   299.57896     -407839.11      455.98066      2478.273           64000   6.85         
      6900   301.6954      -407856.54      851.16651      2495.7813          64000   6.9          
      6950   299.58232     -407838.73      594.24997      2478.3007          64000   6.95         
      7000   301.73713     -407857.49      663.85593      2496.1264          64000   7            
      7050   300.86129     -407851.13      695.63931      2488.881           64000   7.05         
      7100   301.83641     -407856.97      772.76013      2496.9477          64000   7.1          
      7150   299.32637     -407835.55      437.95905      2476.1834          64000   7.15         
      7200   299.07192     -407831.87      649.05964      2474.0785          64000   7.2          
      7250   300.27519     -407843.27      569.13906      2484.0325          64000   7.25         
      7300   300.31102     -407843.7       721.05222      2484.3289          64000   7.3          
      7350   300.29573     -407843.95      645.13764      2484.2025          64000   7.35         
      7400   300.16111     -407844.36      614.21629      2483.0888          64000   7.4          
      7450   302.68943     -407862.96      802.84124      2504.0044          64000   7.45         
      7500   299.87736     -407841.08      660.43528      2480.7414          64000   7.5          
      7550   301.54698     -407854.44      665.19324      2494.5534          64000   7.55         
      7600   298.99707     -407832.37      578.55836      2473.4593          64000   7.6          
      7650   299.86699     -407839.59      730.34386      2480.6557          64000   7.65         
      7700   301.35657     -407851.62      705.15356      2492.9783          64000   7.7          
      7750   300.53665     -407845.81      646.58424      2486.1954          64000   7.75         
      7800   300.50994     -407845.84      642.50091      2485.9745          64000   7.8          
      7850   298.55115     -407830.45      549.9916       2469.7703          64000   7.85         
      7900   299.87451     -407842.6       663.16017      2480.7179          64000   7.9          
      7950   302.33748     -407863.83      776.18071      2501.0929          64000   7.95         
      8000   297.51135     -407823.86      608.71167      2461.1686          64000   8            
      8050   303.29343     -407871.92      747.03099      2509.001           64000   8.05         
      8100   298.01536     -407829.24      624.46425      2465.338           64000   8.1          
      8150   302.31756     -407864.62      783.67351      2500.9281          64000   8.15         
      8200   298.74215     -407835.31      566.27792      2471.3504          64000   8.2          
      8250   298.1066      -407828.71      481.6244       2466.0929          64000   8.25         
      8300   302.47008     -407863.99      813.03396      2502.1898          64000   8.3          
      8350   299.82361     -407843.95      665.04649      2480.2969          64000   8.35         
      8400   298.56317     -407833.65      612.9937       2469.8698          64000   8.4          
      8450   300.41966     -407849.98      725.27221      2485.2276          64000   8.45         
      8500   299.97517     -407843.97      609.94701      2481.5506          64000   8.5          
      8550   299.76836     -407843.51      709.42342      2479.8398          64000   8.55         
      8600   302.02596     -407863.02      712.53653      2498.5158          64000   8.6          
      8650   301.54192     -407856.79      797.77604      2494.5115          64000   8.65         
      8700   294.44428     -407797.57      254.63816      2435.7962          64000   8.7          
      8750   304.97524     -407886.88      918.27032      2522.9138          64000   8.75         
      8800   298.87635     -407835.17      737.21487      2472.4606          64000   8.8          
      8850   298.86882     -407836.73      546.89873      2472.3983          64000   8.85         
      8900   299.32689     -407840.66      582.63773      2476.1877          64000   8.9          
      8950   301.06981     -407854.04      664.55977      2490.606           64000   8.95         
      9000   301.34392     -407855.69      811.20752      2492.8736          64000   9            
      9050   302.29934     -407863.41      838.76545      2500.7774          64000   9.05         
      9100   297.49013     -407824.82      584.63098      2460.993           64000   9.1          
      9150   299.0612      -407837.4       562.42926      2473.9897          64000   9.15         
      9200   299.24862     -407838.5       611.99643      2475.5402          64000   9.2          
      9250   300.81468     -407853.29      798.48973      2488.4954          64000   9.25         
      9300   296.86099     -407819.75      487.89988      2455.7885          64000   9.3          
      9350   304.32985     -407881.88      993.01478      2517.5748          64000   9.35         
      9400   301.14198     -407854.79      733.66625      2491.203           64000   9.4          
      9450   299.12759     -407837.95      650.9069       2474.539           64000   9.45         
      9500   301.09925     -407853.42      685.55342      2490.8496          64000   9.5          
      9550   300.94355     -407852.84      856.98632      2489.5615          64000   9.55         
      9600   297.65122     -407825.43      535.8483       2462.3257          64000   9.6          
      9650   299.81761     -407842.38      615.9811       2480.2472          64000   9.65         
      9700   301.60066     -407857.8       795.88683      2494.9975          64000   9.7          
      9750   299.10532     -407836.45      667.73092      2474.3548          64000   9.75         
      9800   300.2919      -407846.21      586.04347      2484.1707          64000   9.8          
      9850   301.80594     -407859.65      770.70744      2496.6956          64000   9.85         
      9900   300.84804     -407849.85      684.41994      2488.7714          64000   9.9          
      9950   299.8252      -407840.85      644.28604      2480.3099          64000   9.95         
     10000   299.47379     -407841.2       742.20283      2477.4029          64000   10           
     10050   301.771       -407858.46      675.08204      2496.4066          64000   10.05        
     10100   298.77267     -407835.3       661.30825      2471.6029          64000   10.1         
     10150   302.48309     -407865.71      925.84056      2502.2974          64000   10.15        
     10200   299.6157      -407840.67      601.17881      2478.5769          64000   10.2         
     10250   297.40183     -407823.07      529.22984      2460.2626          64000   10.25        
     10300   299.89984     -407844.84      736.67143      2480.9274          64000   10.3         
     10350   300.29961     -407848.94      678.22038      2484.2345          64000   10.35        
     10400   299.20886     -407838.53      594.27128      2475.2113          64000   10.4         
     10450   300.41089     -407847.99      729.57687      2485.1551          64000   10.45        
     10500   302.03341     -407860.96      696.28731      2498.5774          64000   10.5         
     10550   301.97598     -407860.53      873.96386      2498.1024          64000   10.55        
     10600   300.31936     -407845.72      605.30521      2484.3979          64000   10.6         
     10650   297.90069     -407826.14      577.3519       2464.3894          64000   10.65        
     10700   298.55301     -407831.7       536.41702      2469.7858          64000   10.7         
     10750   301.82022     -407858.58      776.0306       2496.8138          64000   10.75        
     10800   299.82419     -407840.98      693.7178       2480.3016          64000   10.8         
     10850   299.41615     -407838.84      652.89061      2476.9261          64000   10.85        
     10900   302.6002      -407864.56      776.75854      2503.2663          64000   10.9         
     10950   299.68968     -407841.52      659.0707       2479.1889          64000   10.95        
     11000   300.49338     -407848.68      719.27547      2485.8375          64000   11           
     11050   299.47766     -407840.61      611.27715      2477.4349          64000   11.05        
     11100   300.11745     -407846.5       688.6552       2482.7276          64000   11.1         
     11150   299.96289     -407845.4       718.08919      2481.449           64000   11.15        
     11200   299.828       -407844.31      589.33295      2480.3331          64000   11.2         
     11250   301.96901     -407861.61      907.75246      2498.0446          64000   11.25        
     11300   298.57648     -407833.36      580.39442      2469.9799          64000   11.3         
     11350   301.06188     -407853.5       592.66494      2490.5404          64000   11.35        
     11400   298.97999     -407837.02      729.15111      2473.318           64000   11.4         
     11450   300.26426     -407847.82      608.92677      2483.9421          64000   11.45        
     11500   302.15234     -407861.43      819.46612      2499.5613          64000   11.5         
     11550   298.98814     -407836.3       612.44077      2473.3854          64000   11.55        
     11600   301.00348     -407853.29      839.56566      2490.0573          64000   11.6         
     11650   299.31433     -407840.21      553.77948      2476.0838          64000   11.65        
     11700   301.62892     -407858.46      731.4065       2495.2313          64000   11.7         
     11750   297.43336     -407825.37      612.48416      2460.5235          64000   11.75        
     11800   301.28412     -407856.68      798.70232      2492.3789          64000   11.8         
     11850   300.07221     -407846.9       644.9696       2482.3534          64000   11.85        
     11900   298.80489     -407835.12      548.11986      2471.8695          64000   11.9         
     11950   300.80561     -407850.8       728.84748      2488.4204          64000   11.95        
     12000   302.5837      -407866.88      793.45096      2503.1297          64000   12           
     12050   298.35005     -407830.83      625.87898      2468.1068          64000   12.05        
     12100   302.48634     -407864.37      799.99765      2502.3243          64000   12.1         
     12150   300.97456     -407851.76      583.90105      2489.8181          64000   12.15        
     12200   297.37392     -407819.23      689.86657      2460.0317          64000   12.2         
     12250   299.20891     -407836.02      533.40963      2475.2117          64000   12.25        
     12300   300.47007     -407847.19      642.75451      2485.6447          64000   12.3         
     12350   300.07305     -407842.07      835.58165      2482.3603          64000   12.35        
     12400   299.98618     -407841.59      510.04759      2481.6416          64000   12.4         
     12450   303.16286     -407868.83      842.55436      2507.9208          64000   12.45        
     12500   299.22394     -407834.89      681.00388      2475.3361          64000   12.5         
     12550   300.7354      -407846.61      634.41765      2487.8396          64000   12.55        
     12600   303.12965     -407866.35      836.22322      2507.6461          64000   12.6         
     12650   297.90839     -407823.36      638.58358      2464.4531          64000   12.65        
     12700   301.47557     -407851.91      667.85699      2493.9627          64000   12.7         
     12750   299.6086      -407835.79      727.02655      2478.5182          64000   12.75        
     12800   301.30914     -407850.19      690.60153      2492.5859          64000   12.8         
     12850   299.40444     -407831.66      635.64614      2476.8293          64000   12.85        
     12900   299.87611     -407835.99      695.4868       2480.7312          64000   12.9         
     12950   301.80892     -407851.88      686.25917      2496.7203          64000   12.95        
     13000   300.51484     -407840.64      823.07624      2486.015           64000   13           
     13050   300.87009     -407845.02      682.22041      2488.9538          64000   13.05        
     13100   300.11085     -407839.92      659.61055      2482.673           64000   13.1         
     13150   301.25768     -407848.72      761.90258      2492.1602          64000   13.15        
     13200   301.35052     -407849.05      758.28032      2492.9282          64000   13.2         
     13250   298.61579     -407827.87      531.10591      2470.3051          64000   13.25        
     13300   301.05399     -407847.95      804.55884      2490.4752          64000   13.3         
     13350   298.81871     -407830.55      589.55478      2471.9838          64000   13.35        
     13400   299.85259     -407839.29      728.37238      2480.5365          64000   13.4         
     13450   299.60798     -407836.57      541.84471      2478.513           64000   13.45        
     13500   302.86364     -407862.93      815.69984      2505.4456          64000   13.5         
     13550   302.0377      -407856.97      884.50303      2498.6129          64000   13.55        
     13600   298.44531     -407826.79      502.33788      2468.8948          64000   13.6         
     13650   301.37584     -407850.96      670.60391      2493.1377          64000   13.65        
     13700   302.20049     -407858.43      954.41874      2499.9596          64000   13.7         
     13750   298.29685     -407825.08      498.44426      2467.6666          64000   13.75        
     13800   300.26644     -407842.93      694.99194      2483.9601          64000   13.8         
     13850   298.75084     -407828.94      576.89063      2471.4223          64000   13.85        
     13900   302.63116     -407862.88      905.85799      2503.5223          64000   13.9         
     13950   299.82873     -407838.26      650.11248      2480.3392          64000   13.95        
     14000   302.31057     -407860.72      817.41162      2500.8703          64000   14           
     14050   299.08021     -407833.48      526.7713       2474.147           64000   14.05        
     14100   298.68687     -407828.89      687.13163      2470.8932          64000   14.1         
     14150   302.85332     -407863.16      819.5134       2505.3602          64000   14.15        
     14200   300.90917     -407846.41      703.59547      2489.2771          64000   14.2         
     14250   299.03146     -407829.69      663.03639      2473.7438          64000   14.25        
     14300   302.15981     -407855         767.36436      2499.6231          64000   14.3         
     14350   299.15186     -407830.3       572.2653       2474.7397          64000   14.35        
     14400   302.60239     -407859.05      885.97391      2503.2844          64000   14.4         
     14450   299.08241     -407830.63      654.59733      2474.1652          64000   14.45        
     14500   300.20842     -407842.22      676.10876      2483.4802          64000   14.5         
     14550   300.19181     -407840.87      694.26892      2483.3427          64000   14.55        
     14600   302.77987     -407863.53      874.9189       2504.7526          64000   14.6         
     14650   299.14295     -407832.03      690.18815      2474.666           64000   14.65        
     14700   299.74231     -407837.55      654.9032       2479.6242          64000   14.7         
     14750   300.86103     -407844.53      782.20638      2488.8789          64000   14.75        
     14800   300.79814     -407843.7       724.02807      2488.3587          64000   14.8         
     14850   299.75378     -407835.41      615.65827      2479.7191          64000   14.85        
     14900   300.05648     -407837.53      636.71464      2482.2232          64000   14.9         
     14950   303.47915     -407865.57      1005.9976      2510.5373          64000   14.95        
     15000   299.43536     -407832.15      638.91014      2477.085           64000   15           
     15050   299.62902     -407834.58      584.63521      2478.687           64000   15.05        
     15100   301.17811     -407849.18      794.69235      2491.5019          64000   15.1         
     15150   299.86967     -407836.72      648.03078      2480.6779          64000   15.15        
     15200   301.58309     -407852.11      811.37719      2494.8521          64000   15.2         
     15250   300.96755     -407845.46      688.40359      2489.7601          64000   15.25        
     15300   299.85959     -407835.63      591.3171       2480.5944          64000   15.3         
     15350   300.4887      -407841.92      704.51754      2485.7988          64000   15.35        
     15400   298.25921     -407824.39      621.23573      2467.3552          64000   15.4         
     15450   303.05192     -407865.07      826.89736      2507.0031          64000   15.45        
     15500   300.01405     -407839.42      663.44926      2481.8723          64000   15.5         
     15550   300.8428      -407846.9       801.94734      2488.7281          64000   15.55        
     15600   300.65999     -407845.34      723.56302      2487.2158          64000   15.6         
     15650   301.65894     -407854.56      871.68512      2495.4796          64000   15.65        
     15700   299.32321     -407834.64      566.06571      2476.1572          64000   15.7         
     15750   297.94608     -407821.72      510.19829      2464.7649          64000   15.75        
     15800   300.57295     -407844.29      780.40309      2486.4957          64000   15.8         
     15850   303.1549      -407866.13      909.43071      2507.855           64000   15.85        
     15900   300.70926     -407845.46      696.99861      2487.6234          64000   15.9         
     15950   298.34026     -407825.68      646.71934      2468.0257          64000   15.95        
     16000   300.01106     -407840.4       563.5815       2481.8475          64000   16           
     16050   301.26932     -407851.11      807.9144       2492.2565          64000   16.05        
     16100   300.93755     -407846.76      770.45731      2489.5119          64000   16.1         
     16150   301.23638     -407849.44      697.37855      2491.984           64000   16.15        
     16200   300.44015     -407842.94      681.74821      2485.3972          64000   16.2         
     16250   300.21573     -407840.83      693.35803      2483.5406          64000   16.25        
     16300   301.75513     -407855.05      793.08704      2496.2753          64000   16.3         
     16350   299.04941     -407830.98      566.03064      2473.8923          64000   16.35        
     16400   300.96098     -407847.49      777.94914      2489.7057          64000   16.4         
     16450   299.11181     -407832.17      513.54232      2474.4084          64000   16.45        
     16500   301.0747      -407849.38      784.21201      2490.6465          64000   16.5         
     16550   301.64384     -407854.51      767.62497      2495.3547          64000   16.55        
     16600   301.40971     -407853.38      761.88282      2493.4179          64000   16.6         
     16650   298.61876     -407831.73      628.28006      2470.3297          64000   16.65        
     16700   299.79654     -407842.16      555.63689      2480.0729          64000   16.7         
     16750   300.82846     -407851.6       789.07598      2488.6095          64000   16.75        
     16800   300.8406      -407852.18      779.56522      2488.7099          64000   16.8         
     16850   299.82195     -407843.8       675.38443      2480.2831          64000   16.85        
     16900   299.99798     -407846.51      689.33104      2481.7393          64000   16.9         
     16950   301.4458      -407858.56      807.50019      2493.7165          64000   16.95        
     17000   297.92974     -407828.59      574.63446      2464.6297          64000   17           
     17050   300.2051      -407847.72      608.34324      2483.4527          64000   17.05        
     17100   299.43093     -407840.37      693.23613      2477.0483          64000   17.1         
     17150   301.44629     -407857.29      717.78931      2493.7205          64000   17.15        
     17200   301.10336     -407854.91      731.3124       2490.8836          64000   17.2         
     17250   300.98995     -407855.16      775.52793      2489.9454          64000   17.25        
     17300   299.43752     -407842.04      726.73884      2477.1029          64000   17.3         
     17350   299.45949     -407842.12      627.94588      2477.2847          64000   17.35        
     17400   299.91247     -407847.35      863.15274      2481.0319          64000   17.4         
     17450   299.95916     -407846.31      609.10985      2481.4182          64000   17.45        
     17500   298.98667     -407840.04      693.89044      2473.3733          64000   17.5         
     17550   299.84829     -407844.6       711.88195      2480.501           64000   17.55        
     17600   302.96198     -407871.8       962.41417      2506.259           64000   17.6         
     17650   297.87371     -407829.95      582.43233      2464.1662          64000   17.65        
     17700   300.60183     -407853.34      801.3237       2486.7346          64000   17.7         
     17750   299.07725     -407839.32      529.49108      2474.1226          64000   17.75        
     17800   301.28195     -407858.17      808.30313      2492.361           64000   17.8         
     17850   299.61341     -407842.47      772.6034       2478.5579          64000   17.85        
     17900   299.59212     -407842.9       665.37798      2478.3818          64000   17.9         
     17950   297.90717     -407828.47      552.46265      2464.443           64000   17.95        
     18000   301.48511     -407857.15      834.81764      2494.0416          64000   18           
     18050   300.248       -407846.72      735.82601      2483.8076          64000   18.05        
     18100   301.24096     -407853.98      677.21395      2492.0219          64000   18.1         
     18150   300.41401     -407846.64      677.62243      2485.1809          64000   18.15        
     18200   301.19874     -407853.55      840.26453      2491.6726          64000   18.2         
     18250   299.5026      -407839.32      547.55884      2477.6412          64000   18.25        
     18300   300.47218     -407847.54      770.24829      2485.6621          64000   18.3         
     18350   298.75008     -407832.58      645.88787      2471.416           64000   18.35        
     18400   301.78445     -407858.49      729.37233      2496.5179          64000   18.4         
     18450   299.72237     -407840.77      661.68347      2479.4593          64000   18.45        
     18500   300.25714     -407844.78      801.918        2483.8832          64000   18.5         
     18550   299.66065     -407838.92      565.23875      2478.9487          64000   18.55        
     18600   301.90324     -407856.74      819.03129      2497.5006          64000   18.6         
     18650   298.8629      -407830.32      658.10818      2472.3493          64000   18.65        
     18700   301.43699     -407851.53      748.53073      2493.6435          64000   18.7         
     18750   298.70257     -407827.94      633.46908      2471.023           64000   18.75        
     18800   301.76333     -407854.33      774.95401      2496.3432          64000   18.8         
     18850   300.72546     -407843.9       699.75506      2487.7574          64000   18.85        
     18900   303.63098     -407867.95      852.90043      2511.7934          64000   18.9         
     18950   299.48092     -407832.24      720.41109      2477.4619          64000   18.95        
     19000   299.3239      -407829.65      691.03668      2476.163           64000   19           
     19050   301.11528     -407845.31      675.28745      2490.9822          64000   19.05        
     19100   299.91639     -407834.83      622.5838       2481.0643          64000   19.1         
     19150   298.91607     -407827.97      684.74211      2472.7892          64000   19.15        
     19200   302.53084     -407857.71      765.0745       2502.6924          64000   19.2         
     19250   301.62184     -407851.12      718.64209      2495.1727          64000   19.25        
     19300   300.35138     -407840.93      703.0237       2484.6628          64000   19.3         
     19350   299.80319     -407836.79      756.44525      2480.1279          64000   19.35        
     19400   301.40926     -407852.35      653.53188      2493.4141          64000   19.4         
     19450   299.26699     -407834.8       688.30165      2475.6922          64000   19.45        
     19500   301.67752     -407855.9       770.17495      2495.6333          64000   19.5         
     19550   300.59098     -407848.39      660.22496      2486.6449          64000   19.55        
     19600   298.29478     -407828.66      578.76197      2467.6495          64000   19.6         
     19650   300.93325     -407850.45      748.86612      2489.4763          64000   19.65        
     19700   299.75425     -407840.44      660.57172      2479.723           64000   19.7         
     19750   300.72095     -407848.83      764.98979      2487.7201          64000   19.75        
     19800   300.65581     -407848.7       645.01462      2487.1812          64000   19.8         
     19850   300.66961     -407847.29      662.58653      2487.2953          64000   19.85        
     19900   298.92983     -407833.7       627.10285      2472.903           64000   19.9         
     19950   301.12005     -407852.35      818.74507      2491.0216          64000   19.95        
     20000   299.46093     -407838.23      635.07405      2477.2966          64000   20           
Loop time of 1979.76 on 4 procs for 16000 steps with 64000 atoms

Performance: 0.698 ns/day, 34.371 hours/ns, 8.082 timesteps/s
98.4% CPU use with 4 MPI tasks x 1 OpenMP threads

MPI task timing breakdown:
Section |  min time  |  avg time  |  max time  |%varavg| %total
---------------------------------------------------------------
Pair    | 1678.2     | 1685.6     | 1702.6     |  24.0 | 85.14
Bond    | 0.0053591  | 0.0056808  | 0.0063886  |   0.5 |  0.00
Neigh   | 0          | 0          | 0          |   0.0 |  0.00
Comm    | 159.71     | 176.69     | 184.07     |  74.3 |  8.92
Output  | 98.443     | 98.449     | 98.467     |   0.1 |  4.97
Modify  | 13.877     | 13.939     | 14.007     |   1.3 |  0.70
Other   |            | 5.056      |            |       |  0.26

Nlocal:          16000 ave       16014 max       15977 min
Histogram: 1 0 0 0 0 0 1 0 1 1
Nghost:          10735 ave       10758 max       10721 min
Histogram: 1 1 0 1 0 0 0 0 0 1
Neighs:              0 ave           0 max           0 min
Histogram: 4 0 0 0 0 0 0 0 0 0
FullNghs:       735860 ave      736509 max      734797 min
Histogram: 1 0 0 0 0 0 1 0 1 1

Total # of neighbors = 2943438
Ave neighs/atom = 45.991219
Ave special neighs/atom = 0
Neighbor list builds = 0
Dangerous builds = 0
# -------------------------------------
group           PKA id 33684
1 atoms in group PKA
velocity        PKA set 214.2527317 642.7581950 1071.2636584
# -------------------------------------
fix             D1 all dt/reset 100 0.0001 0.1 0.017   units box
fix             N2 all nve

run             50000 upto
Per MPI rank memory allocation (min/avg/max) = 19.13 | 19.13 | 19.13 Mbytes
   Step          Temp          E_pair         Press          KinEng        Atoms         Time     
     20000   582.12852     -407838.23      4394.8968      4815.6699          64000   20           
     20050   577.91121     -407803.13      4502.6164      4780.7821          64000   20.005       
     20100   576.18433     -407788.68      4588.4022      4766.4964          64000   20.01        
     20150   567.70325     -407718.82      4758.7212      4696.3365          64000   20.015       
     20200   551.45649     -407584.43      5052.3411      4561.9349          64000   20.02        
     20250   538.93477     -407481.03      5442.3372      4458.3487          64000   20.025       
     20300   536.59074     -407461.55      5739.6575      4438.9576          64000   20.03        
     20350   527.1493      -407383.56      6176.7443      4360.8531          64000   20.035       
     20400   512.23943     -407259.82      6633.2505      4237.511           64000   20.04        
     20450   507.41958     -407219.91      7268.2629      4197.6387          64000   20.045       
     20500   496.08513     -407126.24      8020.421       4103.8742          64000   20.05        
     20550   487.69312     -407057.06      8296.4967      4034.4511          64000   20.055       
     20600   471.37195     -406922.34      8551.5859      3899.4339          64000   20.06        
     20650   473.48245     -406940.16      8761.9818      3916.8931          64000   20.065       
     20700   462.58021     -406850.17      8856.4098      3826.7041          64000   20.07        
     20750   451.40044     -406757.87      8889.045       3734.2192          64000   20.075       
     20800   442.45668     -406683.92      8678.7511      3660.2317          64000   20.08        
     20850   439.12325     -406656.53      8417.1919      3632.6559          64000   20.085882    
     20900   426.11351     -406549.44      8329.9366      3525.0326          64000   20.091764    
     20950   419.54561     -406496.16      8004.2435      3470.6994          64000   20.098392    
     21000   416.33162     -406471.33      7613.1551      3444.1117          64000   20.10502     
     21050   411.65435     -406434.85      7162.6501      3405.4188          64000   20.112006    
     21100   408.66695     -406412.18      6904.6072      3380.7056          64000   20.118993    
     21150   403.27297     -406370         6702.5581      3336.0838          64000   20.128598    
     21200   404.43965     -406381.99      6604.8936      3345.7351          64000   20.138203    
     21250   405.15781     -406390.68      6966.0607      3351.6761          64000   20.148295    
     21300   407.897       -406416.5       6881.0532      3374.3361          64000   20.158386    
     21350   406.70951     -406411.44      7065.93        3364.5126          64000   20.171233    
     21400   407.50455     -406423.26      6793.32        3371.0896          64000   20.18408     
     21450   406.44211     -406419.95      6969.1305      3362.3005          64000   20.195813    
     21500   401.60412     -406385.46      6983.2238      3322.2781          64000   20.207546    
     21550   403.29319     -406405.13      6643.7607      3336.251           64000   20.221127    
     21600   404.41186     -406420.98      6295.809       3345.5052          64000   20.234708    
     21650   405.06301     -406433.18      6369.168       3350.8919          64000   20.246766    
     21700   408.31449     -406467.02      6368.7823      3377.7898          64000   20.258824    
     21750   404.0085      -406440.14      6278.4265      3342.1684          64000   20.272533    
     21800   402.34528     -406434.2       6170.0679      3328.4094          64000   20.286241    
     21850   402.7599      -406444.34      6073.6271      3331.8394          64000   20.298711    
     21900   402.63605     -406450.66      6059.5814      3330.8148          64000   20.311181    
     21950   403.8118      -406469.43      6406.317       3340.5412          64000   20.326262    
     22000   403.15976     -406474.18      6070.2854      3335.1472          64000   20.341343    
     22050   401.75013     -406472.18      5863.8335      3323.486           64000   20.356286    
     22100   401.80277     -406481.44      5720.9687      3323.9215          64000   20.37123     
     22150   401.74762     -406490.4       5509.28        3323.4652          64000   20.386804    
     22200   400.97274     -406493.23      5382.5831      3317.055           64000   20.402378    
     22250   402.51589     -406512.87      5415.7389      3329.8208          64000   20.414137    
     22300   401.09262     -406507.6       5610.9845      3318.0467          64000   20.425896    
     22350   401.44432     -406519.24      5444.0606      3320.9562          64000   20.440721    
     22400   401.22502     -406525.88      5255.6395      3319.142           64000   20.455546    
     22450   397.01422     -406496.84      4973.5029      3284.3081          64000   20.467578    
     22500   398.00049     -406510.79      4736.6093      3292.467           64000   20.479611    
     22550   400.30691     -406537.93      4860.5995      3311.547           64000   20.494944    
     22600   401.39292     -406554.81      5048.3661      3320.531           64000   20.510277    
     22650   400.28332     -406554.32      4989.3603      3311.3518          64000   20.525522    
     22700   399.46987     -406555.07      4780.1769      3304.6225          64000   20.540767    
     22750   398.48097     -406553.6       4485.7731      3296.4418          64000   20.55657     
     22800   398.14188     -406557.55      4718.6629      3293.6367          64000   20.572372    
     22850   400.98605     -406588.43      4666.0618      3317.1651          64000   20.588714    
     22900   400.24716     -406590.03      4720.9013      3311.0526          64000   20.605056    
     22950   395.79825     -406560.37      4416.2015      3274.2489          64000   20.620322    
     23000   396.64154     -406574.04      4516.144       3281.2251          64000   20.635588    
     23050   397.2672      -406586.52      4381.2064      3286.4008          64000   20.651264    
     23100   400.08541     -406617.69      4391.6249      3309.7145          64000   20.666941    
     23150   399.26521     -406617.52      4126.3761      3302.9295          64000   20.680464    
     23200   400.62899     -406634.97      4228.3533      3314.2113          64000   20.693987    
     23250   398.97463     -406629.15      4327.5559      3300.5256          64000   20.709433    
     23300   394.88061     -406603.05      4300.9951      3266.6577          64000   20.724879    
     23350   394.33053     -406605.85      4275.5756      3262.1072          64000   20.739855    
     23400   395.90924     -406626.04      4186.8806      3275.1671          64000   20.754831    
     23450   398.29909     -406654.77      4140.1244      3294.9372          64000   20.771033    
     23500   395.12103     -406637.6       4115.3737      3268.6466          64000   20.787234    
     23550   394.95049     -406644.84      3921.1394      3267.2358          64000   20.803123    
     23600   397.99737     -406678.58      3965.7118      3292.4412          64000   20.819011    
     23650   398.6286      -406692.84      4019.2284      3297.663           64000   20.836245    
     23700   394.03296     -406663.48      3744.6598      3259.6456          64000   20.853479    
     23750   392.35109     -406657.79      3749.9915      3245.7322          64000   20.870722    
     23800   392.15859     -406663.88      3815.5004      3244.1397          64000   20.887965    
     23850   391.54222     -406665.83      3790.1291      3239.0408          64000   20.90402     
     23900   388.02654     -406643.04      3682.4571      3209.9573          64000   20.920075    
     23950   388.74939     -406654.85      3558.2024      3215.9371          64000   20.937315    
     24000   388.61792     -406660.75      3680.9225      3214.8496          64000   20.954556    
     24050   389.65513     -406676.55      3651.7618      3223.4298          64000   20.972722    
     24100   389.66752     -406684.77      3636.1329      3223.5324          64000   20.990888    
     24150   387.86291     -406676.76      3606.718       3208.6037          64000   21.009405    
     24200   389.80743     -406701.97      3611.5888      3224.6898          64000   21.027922    
     24250   390.76872     -406717.84      3664.6946      3232.6421          64000   21.043532    
     24300   391.55383     -406732.2       3689.8051      3239.1369          64000   21.059141    
     24350   389.5537      -406723.87      3478.3152      3222.5908          64000   21.074669    
     24400   391.55178     -406749.14      3434.8685      3239.1199          64000   21.090196    
     24450   393.56199     -406777.36      3594.6722      3255.7495          64000   21.108625    
     24500   392.32299     -406777.2       3260.3984      3245.4998          64000   21.127054    
     24550   390.94825     -406775.24      3036.955       3234.1272          64000   21.144768    
     24600   390.13679     -406777.21      3081.6742      3227.4144          64000   21.162481    
     24650   390.02316     -406784.18      3355.0707      3226.4744          64000   21.180199    
     24700   387.23755     -406768.99      3207.7168      3203.4304          64000   21.197917    
     24750   385.01618     -406758.28      3071.7745      3185.0541          64000   21.216371    
     24800   382.65085     -406744.85      3040.4362      3165.4868          64000   21.234824    
     24850   383.56179     -406757.37      2973.0325      3173.0226          64000   21.251339    
     24900   382.64899     -406754.8       3052.2399      3165.4714          64000   21.267854    
     24950   384.54253     -406776.64      3036.0077      3181.1357          64000   21.286684    
     25000   386.04734     -406796.5       3321.5081      3193.5844          64000   21.305514    
     25050   387.88712     -406820.14      3064.3446      3208.804           64000   21.325468    
     25100   386.66435     -406819.93      3468.8545      3198.6886          64000   21.345422    
     25150   385.94665     -406822.69      3511.0471      3192.7514          64000   21.363105    
     25200   384.22748     -406816.73      3489.0982      3178.5295          64000   21.380788    
     25250   381.47218     -406800.68      3527.0764      3155.7363          64000   21.396979    
     25300   379.82104     -406793.04      3480.3269      3142.0772          64000   21.41317     
     25350   379.22111     -406795.63      3427.7324      3137.1142          64000   21.433282    
     25400   377.4217      -406786.68      3344.1795      3122.2285          64000   21.453394    
     25450   377.52645     -406793.52      3002.9176      3123.0951          64000   21.472977    
     25500   377.49293     -406801.44      3054.1328      3122.8178          64000   21.49256     
     25550   378.29897     -406815.14      2940.1422      3129.4858          64000   21.511108    
     25600   380.25467     -406839.13      3100.4654      3145.6644          64000   21.529656    
     25650   380.32075     -406848.9       3244.122       3146.211           64000   21.551977    
     25700   377.95773     -406838.3       3195.2723      3126.6629          64000   21.574298    
     25750   378.05779     -406845.53      3184.6959      3127.4906          64000   21.593547    
     25800   377.22997     -406844.82      3152.7079      3120.6425          64000   21.612796    
     25850   379.29683     -406868.12      3098.4214      3137.7406          64000   21.633429    
     25900   380.48085     -406886.15      3051.0918      3147.5355          64000   21.654062    
     25950   380.56853     -406896.45      3051.7536      3148.2608          64000   21.674322    
     26000   378.57561     -406888.77      2952.2859      3131.7743          64000   21.694583    
     26050   377.6459      -406888.16      2616.3882      3124.0833          64000   21.714281    
     26100   377.86775     -406897.59      2827.8878      3125.9185          64000   21.733978    
     26150   376.80152     -406896.55      2823.1422      3117.0981          64000   21.755366    
     26200   374.25203     -406882.59      2575.4561      3096.0075          64000   21.776753    
     26250   374.47611     -406890.68      2546.6328      3097.8611          64000   21.79666     
     26300   374.97342     -406902.05      2701.3906      3101.9751          64000   21.816567    
     26350   374.71347     -406907.52      2573.8469      3099.8247          64000   21.838615    
     26400   373.65081     -406906.91      2603.0041      3091.0338          64000   21.860663    
     26450   371.98886     -406899.37      2558.4371      3077.2853          64000   21.882344    
     26500   370.9936      -406897.47      2188.2398      3069.052           64000   21.904026    
     26550   373.45379     -406923.32      2263.199       3089.4039          64000   21.925426    
     26600   373.96929     -406935.09      2367.9387      3093.6684          64000   21.946826    
     26650   374.38513     -406945.13      2297.8283      3097.1085          64000   21.965296    
     26700   370.60448     -406919.65      2231.3688      3065.833           64000   21.983765    
     26750   372.42717     -406941.69      2191.172       3080.9112          64000   22.00646     
     26800   371.19482     -406937.4       2386.7937      3070.7166          64000   22.029155    
     26850   369.54818     -406929.53      2122.2749      3057.0948          64000   22.049561    
     26900   371.97126     -406956.5       2344.511       3077.1397          64000   22.069968    
     26950   370.76149     -406953.12      2398.2373      3067.1318          64000   22.09337     
     27000   368.78749     -406943.84      2554.1128      3050.8019          64000   22.116772    
     27050   369.12104     -406952.96      2655.3873      3053.5612          64000   22.141708    
     27100   368.80888     -406957.65      2857.0933      3050.9789          64000   22.166643    
     27150   366.13516     -406942.53      2773.2993      3028.8605          64000   22.190477    
     27200   366.85666     -406955.21      2830.671       3034.8291          64000   22.214311    
     27250   365.44294     -406950.92      2869.5141      3023.1341          64000   22.237736    
     27300   365.02474     -406955.99      2943.619       3019.6745          64000   22.261161    
     27350   367.42964     -406986.3       2788.1436      3039.569           64000   22.288538    
     27400   367.58615     -406996.1       2813.9688      3040.8638          64000   22.315915    
     27450   366.63396     -406994.77      2752.2583      3032.9868          64000   22.338837    
     27500   366.28999     -406997.84      2696.7135      3030.1413          64000   22.36176     
     27550   365.97844     -407000.7       2494.5077      3027.564           64000   22.384321    
     27600   361.76413     -406970.2       2435.3357      2992.701           64000   22.406883    
     27650   361.68024     -406973.14      2321.3617      2992.0071          64000   22.429496    
     27700   361.93892     -406977.42      2236.9941      2994.1469          64000   22.45211     
     27750   360.78169     -406972.07      2159.7058      2984.5738          64000   22.475677    
     27800   361.00319     -406979.31      2025.98        2986.4061          64000   22.499244    
     27850   361.25941     -406984.66      1998.2095      2988.5257          64000   22.522265    
     27900   363.87471     -407010.34      2220.2097      3010.1608          64000   22.545286    
     27950   366.38242     -407037.35      2414.2605      3030.9059          64000   22.571022    
     28000   365.66332     -407038.27      2411.4757      3024.9572          64000   22.596757    
     28050   361.67934     -407011.74      2572.0328      2991.9996          64000   22.622824    
     28100   360.67962     -407009.88      2859.9689      2983.7294          64000   22.64889     
     28150   362.7253      -407032.43      2708.9788      3000.6523          64000   22.671362    
     28200   360.35803     -407018.33      2617.7443      2981.069           64000   22.693834    
     28250   360.52102     -407025.42      2738.8392      2982.4173          64000   22.719844    
     28300   360.33404     -407027.69      2608.5979      2980.8706          64000   22.745853    
     28350   360.42614     -407032.77      2348.3082      2981.6325          64000   22.771606    
     28400   358.37887     -407019.37      2260.9261      2964.6964          64000   22.79736     
     28450   358.72566     -407025.98      1978.3652      2967.5652          64000   22.820875    
     28500   359.5205      -407035.72      2117.9138      2974.1405          64000   22.844391    
     28550   357.92776     -407027.17      1951.5973      2960.9646          64000   22.872359    
     28600   359.95318     -407049.16      1904.3488      2977.7199          64000   22.900327    
     28650   359.73416     -407052.8       1995.7828      2975.908           64000   22.924878    
     28700   358.22771     -407047.48      1987.4624      2963.4459          64000   22.949429    
     28750   358.04243     -407051.67      2010.1503      2961.9132          64000   22.978074    
     28800   357.44804     -407052.68      1957.337       2956.9961          64000   23.006719    
     28850   354.41175     -407031.21      2001.6358      2931.8783          64000   23.027479    
     28900   356.16439     -407049.32      2123.3447      2946.377           64000   23.048238    
     28950   357.28561     -407063.27      2081.8565      2955.6523          64000   23.0731      
     29000   356.13108     -407057.27      2123.8723      2946.1015          64000   23.097961    
     29050   355.26759     -407054.18      2019.1044      2938.9582          64000   23.122819    
     29100   357.9544      -407080.97      2164.2934      2961.1849          64000   23.147677    
     29150   357.37118     -407082.53      2192.6849      2956.3603          64000   23.173432    
     29200   355.12519     -407070.62      2045.4056      2937.7802          64000   23.199187    
     29250   357.73949     -407099.07      2258.9291      2959.4071          64000   23.225399    
     29300   353.37635     -407069.22      1852.283       2923.3129          64000   23.25161     
     29350   354.44529     -407083.18      2144.9884      2932.1558          64000   23.279994    
     29400   355.46909     -407098.01      2158.9468      2940.6252          64000   23.308378    
     29450   353.14622     -407083.92      2259.8417      2921.4092          64000   23.338604    
     29500   351.39212     -407074.62      2361.0891      2906.8983          64000   23.368829    
     29550   349.95846     -407066.35      2455.4037      2895.0383          64000   23.394658    
     29600   348.78131     -407060.29      2513.2926      2885.3004          64000   23.420487    
     29650   349.45122     -407067.8       2349.067       2890.8422          64000   23.451604    
     29700   352.93982     -407102.4       2306.2099      2919.7017          64000   23.482721    
     29750   353.27471     -407110.01      2031.1317      2922.4721          64000   23.511479    
     29800   352.94187     -407112.34      2111.8535      2919.7187          64000   23.540236    
     29850   353.61009     -407124.28      1946.4287      2925.2466          64000   23.567808    
     29900   351.5711      -407112.05      1964.3786      2908.379           64000   23.595379    
     29950   351.94281     -407119.98      1969.0724      2911.454           64000   23.62667     
     30000   349.45261     -407104.49      2042.2207      2890.8537          64000   23.657961    
     30050   350.72543     -407119.37      1963.6586      2901.3832          64000   23.682706    
     30100   349.09057     -407109.49      2046.9731      2887.8587          64000   23.707452    
     30150   347.91065     -407103.94      1772.8584      2878.0978          64000   23.737102    
     30200   350.00309     -407126.75      1661.6636      2895.4075          64000   23.766753    
     30250   352.50632     -407155.12      1638.3466      2916.1156          64000   23.796       
     30300   349.61679     -407136.97      1626.8506      2892.2119          64000   23.825247    
     30350   349.5107      -407141.45      1943.7779      2891.3343          64000   23.85566     
     30400   345.83359     -407115.35      1893.9818      2860.9153          64000   23.886073    
     30450   346.52176     -407122.41      1922.5142      2866.6082          64000   23.908301    
     30500   348.4727      -407141.46      1953.1351      2882.7474          64000   23.930529    
     30550   347.36074     -407135.26      1931.5948      2873.5487          64000   23.955971    
     30600   346.49994     -407131.85      1799.0288      2866.4277          64000   23.981413    
     30650   346.74128     -407137.56      1805.4331      2868.4242          64000   24.007604    
     30700   348.69092     -407157.59      1927.0749      2884.5526          64000   24.033796    
     30750   345.39539     -407135.48      1796.2905      2857.2903          64000   24.063564    
     30800   346.77355     -407150.88      2068.1433      2868.6911          64000   24.093333    
     30850   347.81514     -407165.87      2073.3636      2877.3077          64000   24.122229    
     30900   347.3191      -407168.48      2028.8394      2873.2042          64000   24.151126    
     30950   346.98163     -407172         1827.0998      2870.4124          64000   24.180494    
     31000   345.63324     -407166.65      1782.7636      2859.2579          64000   24.209862    
     31050   346.66387     -407178.89      1826.2398      2867.7838          64000   24.233232    
     31100   344.48007     -407163.64      1774.8698      2849.7183          64000   24.256603    
     31150   342.64521     -407150.3       1704.2856      2834.5393          64000   24.290407    
     31200   343.92274     -407164.05      1776.2955      2845.1078          64000   24.324212    
     31250   343.49564     -407162.99      1917.5868      2841.5746          64000   24.354635    
     31300   342.86371     -407161.32      1794.1671      2836.3469          64000   24.385057    
     31350   342.7481      -407163.44      1678.8456      2835.3905          64000   24.414896    
     31400   341.99986     -407159.42      1810.0442      2829.2007          64000   24.444734    
     31450   344.40336     -407183.12      1800.1414      2849.0837          64000   24.476197    
     31500   345.36324     -407194.76      1946.7985      2857.0243          64000   24.507659    
     31550   344.15368     -407189.8       1921.4553      2847.0182          64000   24.539155    
     31600   342.34174     -407178.86      1942.5772      2832.0289          64000   24.570651    
     31650   342.29691     -407181.71      2009.5654      2831.6581          64000   24.602659    
     31700   341.65865     -407178.49      1967.7111      2826.3781          64000   24.634666    
     31750   341.92178     -407184.54      1911.9896      2828.5547          64000   24.661944    
     31800   341.26813     -407181.8       1907.5733      2823.1474          64000   24.689222    
     31850   342.1214      -407190.52      1914.0156      2830.2062          64000   24.719171    
     31900   345.78208     -407225.35      2006.8154      2860.4892          64000   24.74912     
     31950   342.22245     -407199.19      1791.189       2831.0421          64000   24.779281    
     32000   341.81977     -407198.9       1621.9808      2827.7109          64000   24.809441    
     32050   340.03406     -407185.76      1476.7764      2812.9386          64000   24.841154    
     32100   339.00789     -407181.05      1317.8211      2804.4495          64000   24.872866    
     32150   340.19682     -407194.16      1167.0139      2814.285           64000   24.904015    
     32200   340.00606     -407195.11      1033.1853      2812.7069          64000   24.935164    
     32250   338.00619     -407181.35      1003.7315      2796.163           64000   24.967857    
     32300   341.72056     -407213.51      1229.8896      2826.8901          64000   25.00055     
     32350   341.89727     -407218.85      1541.9289      2828.352           64000   25.033696    
     32400   341.97097     -407226.03      1635.4846      2828.9617          64000   25.066843    
     32450   340.11581     -407215.72      1860.5075      2813.6149          64000   25.099382    
     32500   340.44717     -407223.22      1918.6979      2816.356           64000   25.131922    
     32550   338.06162     -407206.97      1840.9455      2796.6215          64000   25.158253    
     32600   339.30154     -407221.03      1812.4504      2806.8788          64000   25.184585    
     32650   337.39072     -407208.92      1691.6581      2791.0715          64000   25.218382    
     32700   338.96495     -407225.92      1837.5154      2804.0943          64000   25.252179    
     32750   336.16343     -407205.62      1472.0068      2780.9187          64000   25.284513    
     32800   336.90125     -407213.6       1698.3176      2787.0224          64000   25.316847    
     32850   338.49689     -407231.88      1679.5495      2800.2223          64000   25.346499    
     32900   337.34973     -407226.73      1581.3421      2790.7324          64000   25.37615     
     32950   336.77934     -407226.28      1658.1837      2786.0139          64000   25.411174    
     33000   335.83441     -407221.83      1720.5733      2778.1969          64000   25.446198    
     33050   335.13932     -407220.56      1698.3115      2772.4468          64000   25.481399    
     33100   335.75659     -407230.51      1813.5673      2777.5531          64000   25.516599    
     33150   335.7325      -407233.47      1568.7079      2777.3538          64000   25.547544    
     33200   337.28273     -407250.76      1604.8721      2790.1781          64000   25.578489    
     33250   336.35073     -407248.04      1354.1653      2782.4681          64000   25.612036    
     33300   336.03161     -407249.57      1406.3924      2779.8282          64000   25.645584    
     33350   335.28605     -407248.87      1241.6262      2773.6605          64000   25.681408    
     33400   335.12028     -407251.54      1312.4793      2772.2892          64000   25.717232    
     33450   334.17618     -407247.2       1417.7025      2764.4792          64000   25.752468    
     33500   335.96652     -407264.97      1699.4925      2779.2897          64000   25.787704    
     33550   332.11284     -407235.69      1528.0957      2747.4102          64000   25.823199    
     33600   332.17035     -407237.19      1592.4149      2747.8859          64000   25.858693    
     33650   331.9804      -407237.24      1572.8372      2746.3145          64000   25.888139    
     33700   332.9897      -407248.53      1394.8337      2754.6639          64000   25.917585    
     33750   334.71765     -407265.74      1419.2616      2768.9585          64000   25.950619    
     33800   335.52262     -407276.2       1461.1227      2775.6176          64000   25.983653    
     33850   335.24549     -407278.87      1359.794       2773.325           64000   26.019228    
     33900   333.70619     -407269.91      1328.3417      2760.5911          64000   26.054802    
     33950   332.39984     -407262.19      1302.559       2749.7843          64000   26.087985    
     34000   333.43494     -407274.15      1372.5033      2758.3472          64000   26.121168    
     34050   332.44213     -407268.58      1420.0124      2750.1342          64000   26.155137    
     34100   333.43548     -407279.07      1557.6988      2758.3517          64000   26.189106    
     34150   332.901       -407277.93      1530.151       2753.9302          64000   26.224241    
     34200   330.32291     -407259.09      1305.8358      2732.6029          64000   26.259376    
     34250   333.53962     -407288.45      1560.8217      2759.2132          64000   26.293667    
     34300   330.54972     -407267.54      1606.8964      2734.4792          64000   26.327957    
     34350   330.62628     -407270.33      1586.975       2735.1125          64000   26.361427    
     34400   330.49504     -407270.6       1672.7688      2734.0268          64000   26.394897    
     34450   330.29742     -407272.27      1731.353       2732.392           64000   26.429408    
     34500   329.36805     -407268.26      1581.6901      2724.7038          64000   26.463919    
     34550   331.23756     -407286.98      1526.6092      2740.1693          64000   26.495416    
     34600   330.16093     -407280.31      1423.8808      2731.2629          64000   26.526913    
     34650   331.95793     -407297.16      1599.3041      2746.1286          64000   26.559346    
     34700   332.30078     -407304.34      1467.8708      2748.9649          64000   26.59178     
     34750   330.266       -407291.63      1418.2931      2732.1321          64000   26.624762    
     34800   331.76737     -407307.33      1568.7021      2744.5522          64000   26.657744    
     34850   329.91089     -407294.72      1603.3896      2729.1944          64000   26.692519    
     34900   328.55745     -407285.14      1373.5765      2717.9981          64000   26.727294    
     34950   328.99413     -407292.08      1124.0059      2721.6105          64000   26.759815    
     35000   328.45749     -407290.49      1132.9665      2717.1712          64000   26.792335    
     35050   328.74052     -407295.11      869.84337      2719.5125          64000   26.824462    
     35100   328.50769     -407296.24      929.28539      2717.5865          64000   26.856589    
     35150   328.89309     -407301.33      1044.036       2720.7747          64000   26.891362    
     35200   329.0113      -407304.29      1321.0994      2721.7525          64000   26.926135    
     35250   329.92005     -407314.93      1416.1276      2729.2703          64000   26.962352    
     35300   329.86996     -407317.73      1502.7459      2728.8559          64000   26.998569    
     35350   328.97909     -407313.05      1450.9222      2721.4861          64000   27.033147    
     35400   328.09573     -407307.8       1571.1978      2714.1785          64000   27.067725    
     35450   328.14357     -407310.76      1560.0328      2714.5742          64000   27.100334    
     35500   328.49735     -407317.34      1560.7777      2717.5009          64000   27.132942    
     35550   327.31086     -407311.04      1544.1156      2707.6856          64000   27.166107    
     35600   327.95746     -407321.2       1547.4806      2713.0347          64000   27.199272    
     35650   328.32869     -407327.79      1449.0408      2716.1056          64000   27.233988    
     35700   326.80476     -407317.51      1418.8697      2703.4989          64000   27.268704    
     35750   326.13313     -407313.99      1385.707       2697.9428          64000   27.303628    
     35800   324.35016     -407300.37      1238.5438      2683.1932          64000   27.338551    
     35850   323.33689     -407292.52      1301.8434      2674.8109          64000   27.371061    
     35900   326.19262     -407317.3       1346.0663      2698.435           64000   27.403571    
     35950   326.08917     -407318.66      1211.2039      2697.5792          64000   27.441027    
     36000   326.60308     -407326.62      1348.1934      2701.8306          64000   27.478482    
     36050   328.88968     -407350.06      1560.5249      2720.7464          64000   27.516332    
     36100   327.68576     -407345.05      1530.4855      2710.787           64000   27.554181    
     36150   326.35169     -407337.89      1566.1686      2699.7509          64000   27.587825    
     36200   326.61387     -407343.15      1743.3716      2701.9198          64000   27.621469    
     36250   323.61041     -407320.81      1409.1665      2677.0736          64000   27.657598    
     36300   325.38196     -407337.16      1432.4316      2691.7288          64000   27.693727    
     36350   323.92314     -407326.09      1120.0547      2679.6606          64000   27.730833    
     36400   325.94185     -407343.65      1197.6958      2696.3605          64000   27.767938    
     36450   325.44324     -407341.27      1158.5526      2692.2357          64000   27.802451    
     36500   324.29238     -407334.06      1146.354       2682.7152          64000   27.836965    
     36550   325.50508     -407347.18      1376.0498      2692.7473          64000   27.87522     
     36600   323.30812     -407330.46      1288.9037      2674.5729          64000   27.913475    
     36650   324.27098     -407339.33      1252.5535      2682.5382          64000   27.949918    
     36700   324.3892      -407341.97      1235.196       2683.5161          64000   27.986361    
     36750   323.66043     -407338.38      1306.8706      2677.4874          64000   28.022961    
     36800   324.1803      -407347.21      1294.6076      2681.788           64000   28.05956     
     36850   323.6398      -407346.05      1250.6529      2677.3167          64000   28.097135    
     36900   324.24076     -407353.12      1427.9937      2682.2882          64000   28.13471     
     36950   323.72101     -407351.74      1442.8644      2677.9885          64000   28.167562    
     37000   323.40314     -407350.92      1358.6334      2675.359           64000   28.200414    
     37050   322.50607     -407344.96      1453.1496      2667.9379          64000   28.239608    
     37100   321.00827     -407334.62      1601.7387      2655.5473          64000   28.278803    
     37150   320.08695     -407326.98      1587.7416      2647.9257          64000   28.315699    
     37200   320.07792     -407326.51      1557.7491      2647.851           64000   28.352595    
     37250   322.67884     -407349.32      1545.4241      2669.3671          64000   28.389886    
     37300   322.57507     -407350.18      1296.6944      2668.5087          64000   28.427177    
     37350   324.21204     -407365.23      1455.8543      2682.0506          64000   28.463223    
[...]
     40650   317.55101     -407423.91      1190.9985      2626.9471          64000   30.86211     
     40700   316.23793     -407414.91      1172.3187      2616.0846          64000   30.897678    
     40750   317.19796     -407425.71      1209.8174      2624.0265          64000   30.930833    
     40800   316.5967      -407424.09      1318.2503      2619.0526          64000   30.963987    
     40850   313.89047     -407404.05      1121.5857      2596.6652          64000   31.002399    
     40900   313.90713     -407404.96      1285.1958      2596.803           64000   31.040812    
     40950   314.54079     -407411.06      1451.331       2602.045           64000   31.077887    
     41000   314.32324     -407410.71      1348.2901      2600.2453          64000   31.114962    
     41050   314.17181     -407412.18      1323.286       2598.9925          64000   31.15178     
     41100   314.99948     -407421.65      1484.6509      2605.8395          64000   31.188597    
     41150   314.44444     -407419.28      1503.8327      2601.2479          64000   31.223743    
     41200   313.77792     -407412.95      1505.0225      2595.7341          64000   31.258889    
     41250   313.77926     -407412.51      1526.9798      2595.7452          64000   31.294511    
     41300   313.63205     -407411.66      1411.8164      2594.5274          64000   31.330134    
     41350   314.38513     -407417.33      1414.8669      2600.7573          64000   31.367831    
     41400   315.11234     -407425.22      1468.9061      2606.7731          64000   31.405528    
     41450   315.11151     -407426.62      1394.9487      2606.7663          64000   31.442517    
     41500   316.29444     -407437.71      1352.2177      2616.5521          64000   31.479506    
     41550   315.51048     -407433.34      1405.0101      2610.0668          64000   31.517318    
     41600   315.34616     -407434.22      1429.8599      2608.7074          64000   31.55513     
     41650   314.7217      -407430.85      1259.4508      2603.5416          64000   31.588979    
     41700   313.36188     -407420.43      1070.0259      2592.2925          64000   31.622828    
     41750   313.48996     -407421.5       1100.2921      2593.3519          64000   31.658058    
     41800   313.45779     -407421.53      1187.1939      2593.0858          64000   31.693288    
     41850   313.03692     -407418.83      1203.4755      2589.6042          64000   31.731855    
     41900   313.16805     -407418.96      1102.3655      2590.689           64000   31.770423    
     41950   314.1454      -407428.4       1149.3994      2598.7741          64000   31.808191    
     42000   315.07032     -407435.62      1255.6999      2606.4256          64000   31.845959    
     42050   315.03131     -407436.08      1358.6804      2606.1028          64000   31.882592    
     42100   314.31797     -407430.63      1487.3016      2600.2017          64000   31.919225    
     42150   315.21028     -407439.86      1479.3536      2607.5833          64000   31.954314    
     42200   312.545       -407420.35      1440.8911      2585.5348          64000   31.989402    
     42250   314.4338      -407438.08      1577.725       2601.1599          64000   32.023278    
     42300   313.67143     -407434.95      1377.9869      2594.8531          64000   32.057155    
     42350   314.80029     -407448.04      1454.7932      2604.1917          64000   32.097325    
     42400   313.89541     -407443.63      1412.7207      2596.706           64000   32.137496    
     42450   311.80052     -407426.99      1360.1277      2579.376           64000   32.176303    
     42500   312.23381     -407430.61      1418.8599      2582.9604          64000   32.21511     
     42550   311.52435     -407424.4       1371.5359      2577.0914          64000   32.253364    
     42600   313.47386     -407439.55      1376.8936      2593.2188          64000   32.291618    
     42650   313.6932      -407442.28      1390.9949      2595.0333          64000   32.327594    
     42700   314.6157      -407450.36      1296.3296      2602.6647          64000   32.363571    
     42750   315.39586     -407460.04      1408.842       2609.1186          64000   32.401773    
     42800   314.19212     -407451.75      1325.4174      2599.1606          64000   32.439974    
     42850   313.4568      -407446.41      1356.2486      2593.0776          64000   32.47684     
     42900   312.7781      -407442.37      1478.4745      2587.4631          64000   32.513707    
     42950   312.79253     -407443.85      1467.0268      2587.5825          64000   32.546502    
     43000   311.17118     -407430.34      1395.4623      2574.1698          64000   32.579298    
     43050   311.61534     -407433.19      1414.3086      2577.8441          64000   32.617358    
     43100   312.0786      -407436.3       1427.6089      2581.6764          64000   32.655418    
     43150   312.22442     -407437.37      1307.18        2582.8828          64000   32.693608    
     43200   312.948       -407442.78      1220.8289      2588.8686          64000   32.731799    
     43250   311.95592     -407432.52      1113.535       2580.6616          64000   32.768535    
     43300   313.60414     -407446.69      1293.1984      2594.2965          64000   32.805271    
     43350   313.21433     -407444.28      1296.2076      2591.0718          64000   32.843435    
     43400   313.77034     -407449.84      1272.9868      2595.6714          64000   32.8816      
     43450   313.65469     -407449.68      1270.3514      2594.7147          64000   32.916004    
     43500   313.27468     -407446.57      1134.5733      2591.5711          64000   32.950408    
     43550   313.65972     -407450.1       1249.6442      2594.7563          64000   32.985827    
     43600   311.37758     -407431.63      1271.818       2575.8773          64000   33.021247    
     43650   312.53153     -407441.38      1441.7094      2585.4233          64000   33.055701    
     43700   314.52253     -407459.47      1436.6427      2601.8939          64000   33.090155    
     43750   312.5693      -407444.31      1588.9538      2585.7358          64000   33.127901    
     43800   311.04461     -407431.12      1625.3491      2573.1227          64000   33.165648    
     43850   310.90461     -407431.17      1639.0031      2571.9646          64000   33.203101    
     43900   311.29301     -407433.25      1580.9554      2575.1777          64000   33.240553    
     43950   312.36659     -407442.71      1514.8202      2584.0589          64000   33.277182    
     44000   312.30591     -407443.07      1464.9461      2583.5569          64000   33.313811    
     44050   313.46678     -407454.71      1333.773       2593.1602          64000   33.350016    
     44100   313.59626     -407458.33      1527.1021      2594.2314          64000   33.386221    
     44150   312.55065     -407452.49      1269.1677      2585.5815          64000   33.422427    
     44200   312.19234     -407451.83      1351.0885      2582.6174          64000   33.458633    
     44250   311.53337     -407447.31      1347.9751      2577.166           64000   33.496247    
     44300   311.50339     -407448.52      1344.7364      2576.918           64000   33.533861    
     44350   312.64123     -407460.02      1312.3909      2586.3309          64000   33.573135    
     44400   310.95334     -407446.56      1260.815       2572.3677          64000   33.61241     
     44450   311.00888     -407446.73      1245.0174      2572.8272          64000   33.645863    
     44500   310.59482     -407443.48      1268.3832      2569.4018          64000   33.679316    
     44550   310.61365     -407442.16      1334.2427      2569.5576          64000   33.717087    
     44600   309.83887     -407435.96      1300.665       2563.1482          64000   33.754859    
     44650   310.4366      -407439.9       1387.1357      2568.093           64000   33.787692    
     44700   309.86207     -407437.69      1338.6128      2563.3402          64000   33.820526    
     44750   310.49434     -407442.03      1322.2772      2568.5707          64000   33.859356    
     44800   312.27428     -407459.76      1541.5822      2583.2953          64000   33.898186    
     44850   311.00482     -407451.69      1458.0357      2572.7936          64000   33.933529    
     44900   311.00131     -407453.15      1568.8255      2572.7646          64000   33.968872    
     44950   311.69463     -407463.25      1496.32        2578.5001          64000   34.007687    
     45000   310.85564     -407458.22      1445.6783      2571.5595          64000   34.046502    
     45050   308.61596     -407441.88      1314.8296      2553.0317          64000   34.085206    
     45100   309.73714     -407449.36      1497.3228      2562.3067          64000   34.123909    
     45150   309.24824     -407444.92      1422.4373      2558.2622          64000   34.157108    
     45200   309.98119     -407450.14      1418.4728      2564.3256          64000   34.190307    
     45250   310.92014     -407457.84      1455.3282      2572.0931          64000   34.226996    
     45300   311.64403     -407465.75      1529.9922      2578.0815          64000   34.263685    
     45350   309.99122     -407453.17      1385.7719      2564.4086          64000   34.302483    
     45400   310.87963     -407462.37      1593.71        2571.7579          64000   34.34128     
     45450   310.16669     -407457.31      1463.1618      2565.8601          64000   34.373977    
     45500   309.81755     -407454.29      1521.9274      2562.9719          64000   34.406674    
     45550   309.49702     -407451.83      1527.539       2560.3203          64000   34.445769    
     45600   310.10982     -407456.86      1554.7078      2565.3897          64000   34.484864    
     45650   311.40956     -407469.48      1508.1983      2576.1418          64000   34.521028    
     45700   310.11846     -407458.23      1348.2124      2565.4611          64000   34.557192    
     45750   311.24903     -407468.41      1334.2629      2574.8138          64000   34.596393    
     45800   310.01101     -407458.13      1360.4403      2564.5723          64000   34.635593    
     45850   308.12155     -407441.13      1278.7877      2548.9417          64000   34.673199    
     45900   309.30584     -407450.68      1327.7021      2558.7388          64000   34.710805    
     45950   308.75226     -407446.03      1125.0541      2554.1592          64000   34.748747    
     46000   310.12783     -407457.8       1223.7175      2565.5386          64000   34.78669     
     46050   310.18177     -407458.97      1246.2333      2565.9849          64000   34.824824    
     46100   311.50178     -407471.66      1331.0483      2576.9047          64000   34.862957    
     46150   311.15905     -407470.19      1359.8787      2574.0694          64000   34.899762    
     46200   310.801       -407469.36      1412.0876      2571.1075          64000   34.936567    
     46250   310.6082      -407469.81      1594.7808      2569.5125          64000   34.976187    
     46300   309.37909     -407459.68      1525.6632      2559.3447          64000   35.015807    
     46350   310.61635     -407471.38      1686.5506      2569.5799          64000   35.055125    
     46400   308.26888     -407452.72      1463.0561      2550.1605          64000   35.094443    
     46450   309.36257     -407462.22      1568.1698      2559.2081          64000   35.13058     
     46500   309.6992      -407466.25      1544.451       2561.9929          64000   35.166718    
     46550   309.86723     -407467.49      1568.9219      2563.3829          64000   35.201287    
     46600   307.46699     -407446.94      1452.6267      2543.5268          64000   35.235856    
     46650   310.05708     -407469.08      1610.548       2564.9534          64000   35.272898    
     46700   309.41957     -407465.31      1422.4399      2559.6796          64000   35.309941    
     46750   308.81982     -407461.59      1421.7865      2554.7181          64000   35.348649    
     46800   309.27616     -407466.12      1331.5116      2558.4932          64000   35.387357    
     46850   308.40592     -407460.83      1265.0163      2551.2942          64000   35.425032    
     46900   309.92376     -407475.92      1376.2636      2563.8505          64000   35.462707    
     46950   308.74751     -407468.33      1489.8682      2554.1199          64000   35.498355    
     47000   308.5503      -407468.07      1423.7895      2552.4886          64000   35.534003    
     47050   308.96652     -407470.45      1458.9636      2555.9317          64000   35.572192    
     47100   306.78854     -407452.74      1490.84        2537.9144          64000   35.61038     
     47150   309.02547     -407470.28      1469.4152      2556.4194          64000   35.641504    
     47200   306.49716     -407448.97      1464.785       2535.5039          64000   35.672627    
     47250   307.73337     -407459.62      1460.097       2545.7304          64000   35.707544    
     47300   308.62201     -407467.28      1318.6628      2553.0817          64000   35.742462    
     47350   310.66306     -407486.33      1488.5076      2569.9664          64000   35.779986    
     47400   308.7141      -407471.59      1334.0947      2553.8435          64000   35.81751     
     47450   309.35477     -407478.59      1405.0248      2559.1435          64000   35.856526    
     47500   309.00371     -407477.26      1337.4362      2556.2393          64000   35.895542    
     47550   307.25855     -407463         1389.8376      2541.8025          64000   35.935931    
     47600   308.11648     -407471.88      1433.5685      2548.8997          64000   35.97632     
     47650   308.54554     -407476.58      1451.8081      2552.4492          64000   36.015685    
     47700   308.96598     -407481.38      1561.5793      2555.9272          64000   36.05505     
     47750   306.88323     -407464.65      1492.3577      2538.6977          64000   36.087724    
     47800   308.21704     -407474.98      1558.2788      2549.7316          64000   36.120397    
     47850   307.96853     -407472.9       1631.7775      2547.6759          64000   36.152032    
     47900   307.20143     -407467.23      1628.0712      2541.33            64000   36.183667    
     47950   307.0733      -407465.65      1637.0062      2540.27            64000   36.221017    
     48000   306.64209     -407460.81      1528.4707      2536.7028          64000   36.258368    
     48050   307.5349      -407468.28      1539.0601      2544.0886          64000   36.297751    
     48100   309.86997     -407488.43      1615.1583      2563.4055          64000   36.337134    
     48150   308.62467     -407478.61      1479.4814      2553.1038          64000   36.375165    
     48200   309.56398     -407487.09      1498.6128      2560.8742          64000   36.413195    
     48250   309.19534     -407484.7       1465.1056      2557.8246          64000   36.452254    
     48300   309.32875     -407485.99      1533.122       2558.9282          64000   36.491312    
     48350   308.36395     -407476.81      1533.4722      2550.947           64000   36.529491    
     48400   307.70929     -407469.9       1354.8204      2545.5312          64000   36.56767     
     48450   307.72746     -407469.3       1180.7508      2545.6816          64000   36.601358    
     48500   308.00839     -407471.1       1191.3836      2548.0056          64000   36.635046    
     48550   307.94086     -407470.49      1181.552       2547.4469          64000   36.673087    
     48600   310.44457     -407491.79      1373.9563      2568.1589          64000   36.711128    
     48650   308.55081     -407477.19      1392.044       2552.4927          64000   36.750133    
     48700   309.60219     -407485.86      1585.6595      2561.1903          64000   36.789138    
     48750   307.93487     -407472.31      1425.7414      2547.3974          64000   36.825927    
     48800   308.20685     -407475.22      1643.5909      2549.6473          64000   36.862716    
     48850   308.84335     -407482.2       1550.9127      2554.9128          64000   36.894717    
     48900   308.7481      -407482.92      1618.9335      2554.1248          64000   36.926719    
     48950   309.44955     -407491.98      1703.7008      2559.9276          64000   36.958822    
     49000   308.33256     -407484.7       1555.9261      2550.6873          64000   36.990925    
     49050   307.8737      -407482.32      1427.1193      2546.8913          64000   37.026263    
     49100   308.89751     -407490.77      1545.4926      2555.3608          64000   37.061602    
     49150   306.86739     -407472.85      1483.2676      2538.5666          64000   37.09898     
     49200   308.08161     -407483.24      1617.6721      2548.6113          64000   37.136358    
     49250   307.35265     -407477.4       1446.8746      2542.5809          64000   37.175553    
     49300   307.51694     -407478.85      1317.448       2543.9401          64000   37.214749    
     49350   308.59368     -407487.62      1387.1125      2552.8474          64000   37.250792    
     49400   309.07862     -407492.64      1460.4261      2556.8591          64000   37.286836    
     49450   309.21501     -407495.05      1414.9044      2557.9874          64000   37.324467    
     49500   308.87811     -407493.44      1455.2612      2555.2003          64000   37.362099    
     49550   308.0438      -407488.55      1492.4034      2548.2985          64000   37.400406    
     49600   308.42675     -407492.82      1610.9889      2551.4665          64000   37.438712    
     49650   306.80702     -407479.92      1582.3988      2538.0672          64000   37.477682    
     49700   307.19184     -407481.74      1563.3944      2541.2506          64000   37.516652    
     49750   307.74133     -407487.35      1536.5227      2545.7963          64000   37.553739    
     49800   307.98067     -407487.43      1343.6864      2547.7762          64000   37.590825    
     49850   308.87141     -407496.02      1330.5539      2555.1449          64000   37.629825    
     49900   308.07961     -407488.57      1250.0832      2548.5947          64000   37.668825    
     49950   308.23799     -407490.49      1385.2196      2549.905           64000   37.70668     
     50000   306.59463     -407478.55      1386.3597      2536.3102          64000   37.744536    
Loop time of 3922.21 on 4 procs for 30000 steps with 64000 atoms

Performance: 0.499 ns/day, 48.096 hours/ns, 7.649 timesteps/s
98.1% CPU use with 4 MPI tasks x 1 OpenMP threads

MPI task timing breakdown:
Section |  min time  |  avg time  |  max time  |%varavg| %total
---------------------------------------------------------------
Pair    | 3300.6     | 3326.3     | 3369.6     |  48.2 | 84.81
Bond    | 0.010489   | 0.011086   | 0.01215    |   0.6 |  0.00
Neigh   | 4.426      | 4.4636     | 4.4865     |   1.1 |  0.11
Comm    | 306.62     | 350.26     | 376.08     | 149.5 |  8.93
Output  | 203.36     | 203.45     | 203.7      |   1.0 |  5.19
Modify  | 27.784     | 27.874     | 27.969     |   1.3 |  0.71
Other   |            | 9.807      |            |       |  0.25

Nlocal:          16000 ave       16026 max       15970 min
Histogram: 1 0 0 0 0 2 0 0 0 1
Nghost:        10753.5 ave       10770 max       10741 min
Histogram: 1 0 0 1 1 0 0 0 0 1
Neighs:              0 ave           0 max           0 min
Histogram: 4 0 0 0 0 0 0 0 0 0
FullNghs:       735706 ave      737033 max      734096 min
Histogram: 1 0 0 0 0 1 1 0 0 1

Total # of neighbors = 2942826
Ave neighs/atom = 45.981656
Ave special neighs/atom = 0
Neighbor list builds = 82
Dangerous builds = 1
Total wall time: 1:45:28
